<?xml version="1.0"?>
<VTKFile type="UnstructuredGrid"  version="0.1"  >
<UnstructuredGrid>
<Piece  NumberOfPoints="4940" NumberOfCells="9650">
<Points>
<DataArray  type="Float64"  NumberOfComponents="3"  format="ascii">500 250 0  0 250 0  250 500 0  250 0 0  256.8885856082646 499.9050767557906 0  263.7719401218049 499.6203791065173 0  270.6448364229772 499.1461232471188 0  277.5020553257866 498.4826693209355 0  284.3383895508592 497.6305211460281 0  291.1486476865662 496.5903258312597 0  297.9276581259182 495.3628732847843 0  304.6702729675493 493.9490956196674 0  311.3713719748657 492.3500664368026 0  318.0258664141369 490.5670000199653 0  324.6287029687753 488.6012504015818 0  331.1748675330201 486.4543103455647 0  337.6593890460416 484.1278102064655 0  344.0773432429536 481.6235166997244 0  350.4238564271474 478.9433315480048 0  356.694109139292 476.0892900492477 0  362.88333985546 473.0635595140469 0  368.9868485575419 469.8684376402048 0  375.0000003153078 466.5063507640667 0  380.9182288257928 462.9798520074548 0  386.7370398729688 459.2916193419558 0  392.4520147244077 455.444453565817 0  398.0588135356345 451.4412761437442 0  403.5531785622926 447.285127045646 0  408.9309374414144 442.9791624087773 0  414.1880064015299 438.5266521049243 0  419.3203932989752 433.9309773069245 0  424.324200661095 429.1956279150535 0  429.1956286596235 424.3241998957182 0  433.9309780058756 419.3203925397119 0  438.5266527445345 414.1880056671062 0  442.9791630130591 408.9309367076756 0  447.2851276060475 403.5531778422888 0  451.4412766621026 398.0588128303826 0  455.4444540361634 392.4520140460735 0  459.2916197786263 386.7370392045948 0  462.9798524073514 380.9182281752347 0  466.5063511234856 374.9999996927758 0  469.8684379657123 368.9868479560565 0  473.0635598144817 362.8833392617846 0  476.0892903190255 356.6941085676214 0  478.9433317963513 350.4238558609745 0  481.6235169154735 344.0773427117675 0  484.12781039012 337.6593885555221 0  486.4543105028062 331.1748670749914 0  488.601250531677 324.6287025528375 0  490.5670001317469 318.0258660188321 0  492.3500665291326 311.3713716102628 0  493.949095695951 304.6702726271575 0  495.3628733416623 297.9276578347343 0  496.5903258712341 291.1486474470129 0  497.6305211749058 284.3383893426084 0  498.4826693388848 277.502055163614 0  499.1461232580606 270.6448362909296 0  499.6203791109319 263.7719400417897 0  499.9050767571306 256.8885855596534 0  499.9050767559877 243.1114143988867 0  499.6203791069493 236.2280598860241 0  499.1461232485393 229.3551635941651 0  498.4826693235677 222.4979446979962 0  497.6305211491849 215.6616104719064 0  496.5903258357701 208.8513523404629 0  495.3628732906988 202.0723419043604 0  493.9490956264813 195.3297270628552 0  492.3500664487791 188.6286280724281 0  490.5670000344809 181.9741336371959 0  488.6012504175981 175.3712970824318 0  486.4543103623226 168.8251325157939 0  484.1278102222298 162.3406109960628 0  481.6235167152198 155.9226567951971 0  478.9433315621651 149.5761436051346 0  476.0892900516498 143.3058908657982 0  473.063559513628 137.1166601437124 0  469.8684376406648 131.0131514433083 0  466.5063507675389 124.9999996907064 0  462.9798520124137 119.0817711822745 0  459.2916193464549 113.2629601339176 0  455.4444535642773 107.5479852733717 0  451.4412761528674 101.9411864767781 0  447.2851270583545 96.44682145403524 0  442.9791624165781 91.06906256805769 0  438.5266521117469 85.81199360630404 0  433.9309773156125 80.67960671046254 0  429.1956279150353 75.67579933888632 0  424.3241998888952 70.80437133373906 0  419.3203925223282 66.06902197812161 0  414.1880056411937 61.47334723289828 0  408.9309366751728 57.0208369601728 0  403.5531778009394 52.71487236176898 0  398.058812796452 48.55872331295853 0  392.4520140187753 44.55554594490843 0  386.7370391799677 40.70838020528396 0  380.9182281475119 37.02014757560744 0  374.9999996718656 33.49364886444181 0  368.9868479340393 30.13156202237255 0  362.8833392380029 26.93644017348339 0  356.6941085456942 23.91070967062674 0  350.4238558420009 21.0566681953261 0  344.0773426899492 18.37648307566465 0  337.6593885328982 15.87218960140942 0  331.1748670549786 13.54568949032341 0  324.6287025315056 11.39874946165088 0  318.0258660010876 9.432999863235466 0  311.3713716017894 7.649933468721599 0  304.6702726190621 6.050904302234756 0  297.9276578269805 4.637126656823085 0  291.148647441857 3.409674127905504 0  284.3383893425031 2.369478825079682 0  277.502055159398 1.517330660648639 0  270.6448362875833 0.853876741662134 0  263.7719400401456 0.3796208889774277 0  256.8885855592052 0.09492324285704967 0  243.1114143979462 0.09492324403817065 0  236.2280598850882 0.3796208931023841 0  229.3551635938215 0.8538767514891958 0  222.4979446968584 1.517330676558146 0  215.6616104703111 2.369478851036291 0  208.8513523382973 3.409674164591252 0  202.0723419066374 4.637126708856528 0  195.3297270659513 6.050904372824903 0  188.628628074828 7.649933550613184 0  181.9741336377093 9.432999965373938 0  175.3712970793675 11.39874958336037 0  168.8251325057572 13.54568964112298 0  162.340610986655 15.87218978129263 0  155.9226567874317 18.37648328793418 0  149.576143602509 21.05666843898663 0  143.3058908718157 23.91070994551046 0  137.1166601505524 26.93644048291054 0  131.0131514451933 30.13156235831508 0  124.9999996848412 33.49364923584736 0  119.0817711715717 37.0201479941652 0  113.2629601211624 40.70838066187849 0  107.5479852622251 44.55554644345162 0  101.9411864693332 48.55872385260452 0  96.44682143286516 52.71487295812284 0  91.06906254351222 57.02083760363669 0  85.81199358272519 61.4733479087879 0  80.67960667988106 66.06902271253972 0  75.67579930062769 70.80437212218331 0  70.80437129287643 75.67580015310926 0  66.06902193673014 80.67960752263491 0  61.47334718684866 85.81199441168215 0  57.02083692524275 91.0690633672404 0  52.71487232786438 96.44682224262129 0  48.55872328070024 101.941187247437 0  44.55554591578033 107.5479860232332 0  40.7083801742321 113.2629608675606 0  37.02014754791168 119.0817718975441 0  33.49364883372994 125.000000381329 0  30.13156199866361 131.0131521097709 0  26.9364401549829 137.1166607985551 0  23.91070965524918 143.3058914868915 0  21.05666818346614 149.576144185037 0  18.37648306853811 155.9226573275967 0  15.8721895918909 162.3406114925245 0  13.54568948170046 168.8251329701392 0  11.39874945301878 175.3712974960928 0  9.432999857087736 181.9741340206533 0  7.649933466342702 188.6286284076045 0  6.050904301250966 195.3297273853278 0  4.637126656808988 202.0723421730917 0  3.409674127767772 208.8513525589684 0  2.369478824521138 215.6616106615248 0  1.517330660909465 222.4979448382452 0  0.8538767414496533 229.355163714981 0  0.3796208887135322 236.2280599646376 0  0.09492324266324204 243.1114144478261 0  0.0949232442452228 256.8885856095658 0  0.3796208935834784 263.7719401236316 0  0.8538767530323526 270.6448364248016 0  1.517330679476544 277.5020553295092 0  2.369478854618649 284.3383895555228 0  3.409674170191892 291.1486476952655 0  4.6371267162381 297.9276581311522 0  6.050904381420935 304.6702729724059 0  7.649933562385399 311.3713719716595 0  9.43299997979841 318.0258664133013 0  11.3987495994252 324.6287029719946 0  13.54568965885832 331.174867545904 0  15.87218979367188 337.6593890464085 0  18.37648329843151 344.0773432384132 0  21.05666844777872 350.423856417535 0  23.91070995156048 356.6941091410045 0  26.93644048988043 362.8833398632205 0  30.13156235982007 368.9868485575877 0  33.49364924138357 375.0000003247478 0  37.0201480006036 380.9182288389023 0  40.70838066758398 386.7370398875706 0  44.55554644477201 392.4520147396792 0  48.55872386086904 398.0588135419111 0  52.71487295981296 403.5531785693063 0  57.02083760525949 408.9309374584583 0  61.47334790862246 414.1880064170849 0  66.06902271205095 419.320393319588 0  70.80437211216579 424.3242006890749 0  75.67580013809859 429.195628692521 0  80.6796075127923 433.930978054209 0  85.81199439754931 438.5266528008431 0  91.06906334717917 442.9791630582355 0  96.44682221438322 447.2851276501571 0  101.9411872243843 451.441276702356 0  107.5479859945825 455.4444540643537 0  113.2629608446994 459.2916198108319 0  119.0817718768376 462.9798524393601 0  125.0000003647644 466.5063511567065 0  131.0131521012763 469.8684379967393 0  137.1166607840049 473.0635598376539 0  143.3058914748804 476.0892903390826 0  149.5761441732679 478.9433318113714 0  155.9226573130112 481.6235169255377 0  162.3406114779862 484.1278104026658 0  168.8251329570439 486.4543105138039 0  175.3712974805475 488.601250542119 0  181.9741340135204 490.5670001408953 0  188.6286284005059 492.3500665318597 0  195.3297273788229 493.9490956972913 0  202.0723421640089 495.3628733414168 0  208.8513525529672 496.5903258712308 0  215.6616106544547 497.6305211744985 0  222.4979448327038 498.4826693384772 0  229.3551637102845 499.1461232581612 0  236.2280599621369 499.6203791111485 0  243.1114144470173 499.9050767573145 0  155.2373389820306 474.8197567317462 0  25.36256300907667 153.9152755065208 0  432.3709625126712 412.6214396304305 0  6.013151705810699 246.637913163471 0  246.6379131630491 493.986848294322 0  338.6995838441862 22.68244767887072 0  477.3175523131281 338.6995838660569 0  493.9868482700757 246.6379131399102 0  246.6201155078769 6.218451882810491 0  417.6179310263282 72.7156044707053 0  102.2232990934413 445.0100869616822 0  63.66330858966404 92.20354579482142 0  391.3105220491464 50.73522820883105 0  72.79295043967942 418.0702734974704 0  448.290574428537 108.25674339002 0  402.4604651193511 440.7462829841712 0  97.55317348421397 59.11376320116034 0  136.7376477664901 33.58246472647134 0  363.3288394375288 465.6947312928271 0  44.0678766556007 381.0860953771871 0  469.6905266180034 142.3890690100806 0  22.68244791668644 338.6995843487432 0  338.699584349159 477.317552078365 0  173.389488083762 18.6681884918202 0  483.4809734778481 179.7121987795732 0  13.50237455842738 306.4709525540879 0  305.9825168523021 487.24416992
[...]
<PointData  Vectors="f_12"> 
<DataArray  type="Float64"  Name="f_12"  NumberOfComponents="3" format="ascii">0.0000000000000000e+00 2.5033788607771718e-01 2.9581118115721211e-01  0.0000000000000000e+00 2.7813119994668128e-01 2.6623537103025197e-01  0.0000000000000000e+00 2.5855138906916197e-01 3.2422896344981716e-01  0.0000000000000000e+00 2.3926063436333117e-01 2.5151083485253889e-01  0.0000000000000000e+00 2.5806889069035477e-01 3.2468122400655763e-01  0.0000000000000000e+00 2.5759072955778273e-01 3.2504092559218956e-01  0.0000000000000000e+00 2.5714316813899302e-01 3.2540807542146966e-01  0.0000000000000000e+00 2.5671355291841785e-01 3.2573263739762193e-01  0.0000000000000000e+00 2.5630240920293318e-01 3.2601005735382849e-01  0.0000000000000000e+00 2.5591031328129304e-01 3.2624869166440151e-01  0.0000000000000000e+00 2.5553870009846691e-01 3.2645109923039511e-01  0.0000000000000000e+00 2.5518832022252008e-01 3.2661847594514337e-01  0.0000000000000000e+00 2.5485785835044178e-01 3.2674935734177585e-01  0.0000000000000000e+00 2.5454602385713665e-01 3.2683261045210543e-01  0.0000000000000000e+00 2.5424560769925436e-01 3.2682576475561359e-01  0.0000000000000000e+00 2.5398195628722992e-01 3.2688411270649659e-01  0.0000000000000000e+00 2.5371676216329264e-01 3.2677734184275414e-01  0.0000000000000000e+00 2.5348452732759458e-01 3.2672363063474330e-01  0.0000000000000000e+00 2.5326835414266902e-01 3.2660581550553125e-01  0.0000000000000000e+00 2.5307030433171462e-01 3.2645390468653940e-01  0.0000000000000000e+00 2.5288984920865271e-01 3.2626620274074614e-01  0.0000000000000000e+00 2.5272161857774367e-01 3.2600411138260382e-01  0.0000000000000000e+00 2.5257022595262740e-01 3.2570848844349010e-01  0.0000000000000000e+00 2.5244314327243411e-01 3.2543486857163195e-01  0.0000000000000000e+00 2.5233065200521976e-01 3.2511511951191807e-01  0.0000000000000000e+00 2.5222665906784120e-01 3.2472905008810893e-01  0.0000000000000000e+00 2.5212756961895744e-01 3.2426288032130435e-01  0.0000000000000000e+00 2.5205330540192128e-01 3.2382832044561422e-01  0.0000000000000000e+00 2.5199174452387180e-01 3.2336562933515578e-01  0.0000000000000000e+00 2.5193043956082217e-01 3.2281912464222368e-01  0.0000000000000000e+00 2.5188949280530321e-01 3.2228770638625009e-01  0.0000000000000000e+00 2.5185366500393969e-01 3.2171015450144430e-01  0.0000000000000000e+00 2.5182145215213492e-01 3.2108261587461284e-01  0.0000000000000000e+00 2.5180497790018957e-01 3.2046383116227772e-01  0.0000000000000000e+00 2.5178633044745813e-01 3.1978651602549601e-01  0.0000000000000000e+00 2.5177444796231868e-01 3.1908622078230142e-01  0.0000000000000000e+00 2.5178007312646211e-01 3.1840030269834596e-01  0.0000000000000000e+00 2.5177740957313860e-01 3.1765715295983665e-01  0.0000000000000000e+00 2.5176363076568831e-01 3.1685721344513612e-01  0.0000000000000000e+00 2.5176174541493834e-01 3.1606168942292451e-01  0.0000000000000000e+00 2.5177604701105011e-01 3.1527799916193638e-01  0.0000000000000000e+00 2.5177635209153532e-01 3.1444441690480074e-01  0.0000000000000000e+00 2.5176179530755488e-01 3.1356840050529466e-01  0.0000000000000000e+00 2.5175529026087123e-01 3.1269368685054227e-01  0.0000000000000000e+00 2.5174163930104004e-01 3.1179539862734040e-01  0.0000000000000000e+00 2.5172216754921894e-01 3.1087895297373064e-01  0.0000000000000000e+00 2.5169954020157081e-01 3.0995033227540553e-01  0.0000000000000000e+00 2.5168027445812202e-01 3.0901867368109576e-01  0.0000000000000000e+00 2.5163558454717805e-01 3.0805163641479477e-01  0.0000000000000000e+00 2.5158436574020066e-01 3.0707474165760174e-01  0.0000000000000000e+00 2.5152983710118704e-01 3.0609165058267324e-01  0.0000000000000000e+00 2.5146285440467697e-01 3.0509525262328863e-01  0.0000000000000000e+00 2.5139607681644210e-01 3.0409829419248330e-01  0.0000000000000000e+00 2.5129977036926748e-01 3.0307703087758781e-01  0.0000000000000000e+00 2.5119932914083087e-01 3.0205425127696006e-01  0.0000000000000000e+00 2.5109750303188400e-01 3.0103111851962011e-01  0.0000000000000000e+00 2.5097355135754951e-01 2.9999601793826275e-01  0.0000000000000000e+00 2.5083994650866609e-01 2.9895702522277506e-01  0.0000000000000000e+00 2.5069536000097326e-01 2.9791432886786640e-01  0.0000000000000000e+00 2.5056744819447196e-01 2.9687933657208887e-01  0.0000000000000000e+00 2.5017098198631732e-01 2.9476976803270039e-01  0.0000000000000000e+00 2.4997452096364856e-01 2.9371965912031656e-01  0.0000000000000000e+00 2.4977826682186521e-01 2.9267123313934756e-01  0.0000000000000000e+00 2.4954315908419220e-01 2.9162120083606463e-01  0.0000000000000000e+00 2.4929999701922359e-01 2.9057368587248961e-01  0.0000000000000000e+00 2.4904592006681339e-01 2.8953025961839063e-01  0.0000000000000000e+00 2.4879315946735195e-01 2.8848883231678935e-01  0.0000000000000000e+00 2.4851761025853403e-01 2.8745214319189133e-01  0.0000000000000000e+00 2.4823482373888778e-01 2.8641954599405439e-01  0.0000000000000000e+00 2.4794464324241450e-01 2.8539180229600442e-01  0.0000000000000000e+00 2.4762953015860131e-01 2.8437371787908650e-01  0.0000000000000000e+00 2.4732332641003174e-01 2.8335693983198323e-01  0.0000000000000000e+00 2.4701000518323751e-01 2.8234460596248218e-01  0.0000000000000000e+00 2.4667596305371320e-01 2.8134681685358554e-01  0.0000000000000000e+00 2.4633456912510102e-01 2.8035873010849482e-01  0.0000000000000000e+00 2.4599107676405582e-01 2.7937645535400613e-01  0.0000000000000000e+00 2.4564328604006402e-01 2.7840303280488887e-01  0.0000000000000000e+00 2.4529284433849541e-01 2.7743740431971492e-01  0.0000000000000000e+00 2.4493685542836086e-01 2.7648409872478719e-01  0.0000000000000000e+00 2.4457303798232272e-01 2.7554859874578164e-01  0.0000000000000000e+00 2.4422265668434331e-01 2.7460079533802734e-01  0.0000000000000000e+00 2.4385803254421226e-01 2.7369179707215768e-01  0.0000000000000000e+00 2.4350132800057975e-01 2.7277814488081242e-01  0.0000000000000000e+00 2.4314305048704790e-01 2.7188360750631985e-01  0.0000000000000000e+00 2.4278974619235788e-01 2.7099814577038489e-01  0.0000000000000000e+00 2.4243964871003335e-01 2.7012718920242140e-01  0.0000000000000000e+00 2.4209415538237694e-01 2.6927180978689319e-01  0.0000000000000000e+00 2.4175499214015905e-01 2.6842987891680276e-01  0.0000000000000000e+00 2.4142336709471005e-01 2.6760458512187180e-01  0.0000000000000000e+00 2.4110074344481766e-01 2.6678961568151804e-01  0.0000000000000000e+00 2.4078746958524994e-01 2.6599443369400783e-01  0.0000000000000000e+00 2.4048506789975294e-01 2.6521339072957040e-01  0.0000000000000000e+00 2.4019424475057538e-01 2.6443157516814814e-01  0.0000000000000000e+00 2.3991719744505288e-01 2.6368194571039932e-01  0.0000000000000000e+00 2.3965548657945665e-01 2.6297347987368774e-01  0.0000000000000000e+00 2.3940682741555219e-01 2.6224626361877890e-01  0.0000000000000000e+00 2.3917394102790701e-01 2.6153304145922684e-01  0.0000000000000000e+00 2.3896142473353563e-01 2.6086635834151967e-01  0.0000000000000000e+00 2.3876285363366334e-01 2.6018697167269772e-01  0.0000000000000000e+00 2.3858254383336824e-01 2.5952083177831392e-01  0.0000000000000000e+00 2.3843199271691864e-01 2.5892377454955395e-01  0.0000000000000000e+00 2.3829746131696425e-01 2.5832159158744133e-01  0.0000000000000000e+00 2.3818345693671972e-01 2.5772841856252809e-01  0.0000000000000000e+00 2.3809129387357419e-01 2.5714849210477064e-01  0.0000000000000000e+00 2.3802474560459708e-01 2.5660022193812104e-01  0.0000000000000000e+00 2.3798055865856180e-01 2.5606298785987675e-01  0.0000000000000000e+00 2.3796177194441678e-01 2.5554746334048467e-01  0.0000000000000000e+00 2.3796985529483225e-01 2.5505694191138079e-01  0.0000000000000000e+00 2.3800217188134137e-01 2.5457957687796290e-01  0.0000000000000000e+00 2.3805678088328358e-01 2.5410666375633828e-01  0.0000000000000000e+00 2.3814195952072267e-01 2.5366485526361826e-01  0.0000000000000000e+00 2.3826071264172327e-01 2.5326577423404445e-01  0.0000000000000000e+00 2.3840746734224508e-01 2.5288633934330779e-01  0.0000000000000000e+00 2.3857786325662891e-01 2.5251348363429926e-01  0.0000000000000000e+00 2.3877767635908406e-01 2.5216355415341407e-01  0.0000000000000000e+00 2.3900374967829810e-01 2.5182369853102737e-01  0.0000000000000000e+00 2.3955872999874092e-01 2.5126134711124515e-01  0.0000000000000000e+00 2.3984378623859565e-01 2.5088866016414835e-01  0.0000000000000000e+00 2.4020540059260434e-01 2.5070778556368756e-01  0.0000000000000000e+00 2.4057655706663145e-01 2.5047039890619094e-01  0.0000000000000000e+00 2.4097619156978434e-01 2.5025503889234063e-01  0.0000000000000000e+00 2.4140526683383234e-01 2.5006909608871369e-01  0.0000000000000000e+00 2.4186432631418209e-01 2.4990966019843158e-01  0.0000000000000000e+00 2.4234790354398839e-01 2.4975494520771932e-01  0.0000000000000000e+00 2.4286119951461307e-01 2.4964416815373972e-01  0.0000000000000000e+00 2.4338891052512537e-01 2.4946705051256843e-01  0.0000000000000000e+00 2.4396005592909245e-01 2.4941454009339445e-01  0.0000000000000000e+00 2.4455127061534221e-01 2.4935551761296326e-01  0.0000000000000000e+00 2.4516476673396723e-01 2.4931986222109084e-01  0.0000000000000000e+00 2.4580290608881417e-01 2.4926271816284107e-01  0.0000000000000000e+00 2.4646451685929421e-01 2.4923063234732082e-01  0.0000000000000000e+00 2.4714827767401504e-01 2.4924668327397650e-01  0.0000000000000000e+00 2.4785351512536405e-01 2.4926586172652415e-01  0.0000000000000000e+00 2.4857913389996147e-01 2.4930974674022516e-01  0.0000000000000000e+00 2.4932434530778388e-01 2.4936825547034902e-01  0.0000000000000000e+00 2.5008966700760737e-01 2.4943141505945282e-01  0.0000000000000000e+00 2.5087044426263844e-01 2.4952895792362298e-01  0.0000000000000000e+00 2.5166321851264223e-01 2.4966494864160943e-01  0.0000000000000000e+00 2.5247287142936792e-01 2.4980339871465809e-01  0.0000000000000000e+00 2.5329778356287846e-01 2.4995202457933555e-01  0.0000000000000000e+00 2.5413563114694887e-01 2.5011620152994640e-01  0.0000000000000000e+00 2.5498380084699473e-01 2.5030022172557181e-01  0.0000000000000000e+00 2.5583937253441347e-01 2.5050870116334728e-01  0.0000000000000000e+00 2.5670328688606442e-01 2.5073383041165853e-01  0.0000000000000000e+00 2.5757194467561567e-01 2.5098109320487011e-01  0.0000000000000000e+00 2.5844482445217781e-01 2.5124738719650824e-01  0.0000000000000000e+00 2.5932190488311807e-01 2.5152994338959095e-01  0.0000000000000000e+00 2.6020146912109421e-01 2.5182884176761405e-01  0.0000000000000000e+00 2.6108761982415263e-01 2.5213705847214563e-01  0.0000000000000000e+00 2.6197395093256415e-01 2.5246112227589962e-01  0.0000000000000000e+00 2.6284081738402143e-01 2.5283309223212247e-01  0.0000000000000000e+00 2.6370568117189697e-01 2.5321927788250437e-01  0.0000000000000000e+00 2.6456217414271704e-01 2.5362648374439928e-01  0.0000000000000000e+00 2.6541641312385295e-01 2.5404597543361346e-01  0.0000000000000000e+00 2.6626394397973457e-01 2.5448209364641483e-01  0.0000000000000000e+00 2.6711698313804566e-01 2.5491951826986875e-01  0.0000000000000000e+00 2.6792670502074711e-01 2.5541620364872175e-01  0.0000000000000000e+00 2.6871022124515193e-01 2.5594375559781235e-01  0.0000000000000000e+00 2.6952946773324044e-01 2.5643811785299947e-01  0.0000000000000000e+00 2.7030398273131079e-01 2.5698433888198230e-01  0.0000000000000000e+00 2.7104143381121676e-01 2.5757184245960540e-01  0.0000000000000000e+00 2.7174975427857800e-01 2.5818621606931053e-01  0.0000000000000000e+00 2.7251283596526193e-01 2.5875080672121825e-01  0.0000000000000000e+00 2.7314909259597114e-01 2.5943906689748059e-01  0.0000000000000000e+00 2.7382510106910468e-01 2.6009138415533511e-01  0.0000000000000000e+00 2.7443598339727238e-01 2.6079630688857813e-01  0.0000000000000000e+00 2.7510933446650143e-01 2.6145709710687831e-01  0.0000000000000000e+00 2.7569563094324923e-01 2.6218944296523472e-01  0.0000000000000000e+00 2.7622372184598210e-01 2.6296635190992679e-01  0.0000000000000000e+00 2.7673847132471935e-01 2.6375512374414684e-01  0.0000000000000000e+00 2.7722088533953915e-01 2.6456615770095049e-01  0.0000000000000000e+00 2.7767581133335589e-01 2.6539870316442243e-01  0.0000000000000000e+00 2.7852252136910965e-01 2.6711402371296167e-01  0.0000000000000000e+00 2.7886050782253746e-01 2.6802808469502576e-01  0.0000000000000000e+00 2.7919505849492382e-01 2.6894627252700248e-01  0.0000000000000000e+00 2.7947644838142177e-01 2.6989794356056440e-01  0.0000000000000000e+00 2.7972962061307283e-01 2.7086823332878007e-01  0.0000000000000000e+00 2.7994742626616020e-01 2.7186004256798557e-01  0.0000000000000000e+00 2.8013365885853725e-01 2.7287031445900189e-01  0.0000000000000000e+00 2.8027860817329014e-01 2.7390463697715683e-01  0.0000000000000000e+00 2.8038000717917594e-01 2.7496250497062225e-01  0.0000000000000000e+00 2.8043343244076763e-01 2.7604421785152866e-01  0.0000000000000000e+00 2.8045852425762563e-01 2.7714049372551924e-01  0.0000000000000000e+00 2.8041926462012007e-01 2.7826415789622494e-01  0.0000000000000000e+00 2.8038616305474751e-01 2.7938894986455315e-01  0.0000000000000000e+00 2.8030370132218646e-01 2.8053381455346171e-01  0.0000000000000000e+00 2.8016674063487956e-01 2.8169703399736246e-01  0.0000000000000000e+00 2.8007458827522258e-01 2.8285487030999917e-01  0.0000000000000000e+00 2.7990361287903548e-01 2.8403526564347098e-01  0.0000000000000000e+00 2.7963992764093709e-01 2.8524122329824225e-01  0.0000000000000000e+00 2.7938976721804110e-01 2.8644485460182867e-01  0.0000000000000000e+00 2.7910521873354355e-01 2.8765871320961522e-01  0.0000000000000000e+00 2.7880440048377358e-01 2.8887583348822793e-01  0.0000000000000000e+00 2.7846717451195174e-01 2.9009841133611836e-01  0.0000000000000000e+00 2.7809875368703374e-01 2.9132581834023591e-01  0.0000000000000000e+00 2.7771527362108128e-01 2.9255507324327717e-01  0.0000000000000000e+00 2.7727065542656171e-01 2.9378511877617058e-01  0.0000000000000000e+00 2.7682560428870290e-01 2.9501367975239623e-01  0.0000000000000000e+00 2.7636652957589197e-01 2.9624166477038166e-01  0.0000000000000000e+00 2.7584662974154822e-01 2.9746033109563175e-01  0.0000000000000000e+00 2.7532525451086642e-01 2.9867464833458074e-01  0.0000000000000000e+00 2.7479411803698572e-01 2.9988297546925213e-01  0.0000000000000000e+00 2.7424468271243507e-01 3.0108224425739188e-01  0.0000000000000000e+00 2.7366874655953072e-01 3.0226723775396541e-01  0.0000000000000000e+00 2.7307873698139895e-01 3.0343935404596206e-01  0.0000000000000000e+00 2.7248318197956428e-01 3.0459991971814737e-01  0.0000000000000000e+00 2.7188884962709936e-01 3.0575206792039766e-01  0.0000000000000000e+00 2.7125247358758642e-01 3.0686982952370495e-01  0.0000000000000000e+00 2.7060666024033925e-01 3.0796547157519794e-01  0.0000000000000000e+00 2.6999642042391342e-01 3.0907009697077714e-01  0.0000000000000000e+00 2.6935935308127917e-01 3.1013832735193203e-01  0.0000000000000000e+00 2.6870672217636310e-01 3.1117381836324320e-01  0.0000000000000000e+00 2.6806229079923921e-01 3.1219365659770587e-01  0.0000000000000000e+00 2.6741215764022624e-01 3.1318254934298173e-01  0.0000000000000000e+00 2.6677467477400579e-01 3.1415622913742069e-01  0.0000000000000000e+00 2.6612038278295636e-01 3.1508050412371563e-01  0.0000000000000000e+00 2.6548529845320007e-01 3.1599335462753814e-01  0.0000000000000000e+00 2.6484756972161572e-01 3.1686512693028790e-01  0.0000000000000000e+00 2.6421577567984827e-01 3.1770289739336383e-01  0.0000000000000000e+00 2.6359872990230410e-01 3.1852143366778179e-01  0.0000000000000000e+00 2.6298602860134501e-01 3.1929587901458195e-01  0.0000000000000000e+00 2.6237958709733278e-01 3.2002804936110657e-01  0.0000000000000000e+00 2.6179353802764227e-01 3.2074427040196041e-01  0.0000000000000000e+00 2.6121460633669857e-01 3.2141304502834273e-01  0.0000000000000000e+00 2.6064624717368751e-01 3.2203307679846432e-01  0.0000000000000000e+00 2.6009433077716482e-01 3.2262403320859029e-01  0.0000000000000000e+00 2.5956124009575160e-01 3.2318823600368751e-01  0.0000000000000000e+00 2.5904276376543561e-01 3.2370538219156564e-01  0.0000000000000000e+00 2.6674444248304702e-01 3.1329663052174389e-01  0.0000000000000000e+00 2.6854160348728973e-01 2.5654619763489855e-01  0.0000000000000000e+00 2.5167285257136679e-01 3.1965177620302448e-01  0.0000000000000000e+00 2.7722876242880107e-01 2.6620964407083225e-01  0.0000000000000000e+00 2.5865213069137061e-01 3.2339158747198454e-01  0.0000000000000000e+00 2.3822221287823162e-01 2.5784946373412304e-01  0.0000000000000000e+00 2.5146209665874802e-01 3.0917355444975247e-01  0.0000000000000000e+00 2.5002413479316971e-01 2.9521480441490028e-01  0.0000000000000000e+00 2.3951568184980279e-01 2.5186772297949239e-01  0.0000000000000000e+00 2.4122480188458048e-01 2.6748014209361409e-01  0.0000000000000000e+00 2.7240954692896874e-01 3.0380631361550936e-01  0.0000000000000000e+00 2.5949528941858135e-01 2.5216004194649155e-01  0.0000000000000000e+00 2.3977158149267971e-01 2.6356354403915300e-01  0.0000000000000000e+00 2.7554523864221553e-01 2.9681647379745868e-01  0.0000000000000000e+00 2.4356307627497220e-01 2.7344693182781604e-01  0.0000000000000000e+00 2.5192705636684137e-01 3.2310025972172551e-01  0.0000000000000000e+00 2.5353639843606995e-01 2.5049704828642011e-01  0.0000000000000000e+00 2.4817391668543851e-01 2.4976798335123826e-01  0.0000000000000000e+00 2.5271123613468488e-01 3.2547496292990408e-01  0.0000000000000000e+00 2.7831717388620159e-01 2.8840759579684400e-01  0.0000000000000000e+00 2.4567303443984076e-01 2.7898263374539650e-01  0.0000000000000000e+00 2.7966003977629333e-01 2.8015225303059177e-01  0.0000000000000000e+00 2.5353030537057158e-01 3.2616644572506481e-01  0.0000000000000000e+00 2.4435141542145125e-01 2.4991881464489513e-01  0.0000000000000000e+00 2.4753977972792790e-01 2.8483755992632237e-01  0.0000000000000000e+00 2.7943616021460038e-01 2.7479784930820556e-01  0.0000000000000000e+00 2.5496101254215692e-01 3.2601079393433385e-01  0.0000000000000000e+00 2.6300827919427455e-01 3.1839697122853200e-01  0.0000000000000000e+00 2.7292979533890799e-01 2.6019687041927758e-01  0.0000000000000000e+00 2.3814344767303391e-01 2.5480972449605704e-01  0.0000000000000000e+00 2.5110078915737727e-01 3.0337588963549555e-01  0.0000000000000000e+00 2.5161042079496032e-01 3.1544853467356992e-01  0.0000000000000000e+00 2.4175267303909645e-01 2.5041066329723483e-01  0.0000000000000000e+00 2.4868126691147002e-01 2.8894595553460783e-01  0.0000000000000000e+00 2.7888958094715804e-01 2.7072374145699662e-01  0.0000000000000000e+00 2.5640461914113671e-01 3.2527122817466764e-01  0.0000000000000000e+00 2.3891203007971010e-01 2.6087390606639288e-01  0.0000000000000000e+00 2.6463878239485439e-01 2.5427579327491645e-01  0.0000000000000000e+00 2.6073013122625871e-01 3.2120277804138714e-01  0.0000000000000000e+00 2.6926417564300814e-01 3.0925245963912534e-01  0.0000000000000000e+00 2.7530087658102537e-01 2.6314279068217133e-01  0.0000000000000000e+00 2.3859429040449490e-01 2.5320172722934392e-01  0.0000000000000000e+00 2.5066504270655277e-01 2.9944211097598994e-01  0.0000000000000000e+00 2.5215480777162885e-01 3.2416846969056218e-01  0.0000000000000000e+00 2.5127860470626634e-01 3.0628691335663516e-01  0.0000000000000000e+00 2.4050502260411150e-01 2.5097769642319540e-01  0.0000000000000000e+00 2.3806707474448002e-01 2.5622975706260298e-01  0.0000000000000000e+00 2.4935603670537013e-01 2.9209553394487103e-01  0.0000000000000000e+00 2.4218422236598211e-01 2.6993471542105496e-01  0.0000000000000000e+00 2.6482529473018640e-01 3.1597692558034846e-01  0.0000000000000000e+00 2.5159076743109726e-01 3.1749234438390384e-01  0.0000000000000000e+00 2.7676539386124455e-01 2.9322717029030027e-01  0.0000000000000000e+00 2.5116327853761100e-01 2.5011357092461001e-01  0.0000000000000000e+00 2.7912494082411532e-01 2.8483500163731251e-01  0.0000000000000000e+00 2.7087884361241127e-01 2.5832855965121887e-01  0.0000000000000000e+00 2.5155978347939056e-01 3.1276669642069244e-01  0.0000000000