<?xml version="1.0"?>
<VTKFile type="UnstructuredGrid"  version="0.1"  >
<UnstructuredGrid>
<Piece  NumberOfPoints="4940" NumberOfCells="9650">
<Points>
<DataArray  type="Float64"  NumberOfComponents="3"  format="ascii">500 250 0  0 250 0  250 500 0  250 0 0  256.8885856082646 499.9050767557906 0  263.7719401218049 499.6203791065173 0  270.6448364229772 499.1461232471188 0  277.5020553257866 498.4826693209355 0  284.3383895508592 497.6305211460281 0  291.1486476865662 496.5903258312597 0  297.9276581259182 495.3628732847843 0  304.6702729675493 493.9490956196674 0  311.3713719748657 492.3500664368026 0  318.0258664141369 490.5670000199653 0  324.6287029687753 488.6012504015818 0  331.1748675330201 486.4543103455647 0  337.6593890460416 484.1278102064655 0  344.0773432429536 481.6235166997244 0  350.4238564271474 478.9433315480048 0  356.694109139292 476.0892900492477 0  362.88333985546 473.0635595140469 0  368.9868485575419 469.8684376402048 0  375.0000003153078 466.5063507640667 0  380.9182288257928 462.9798520074548 0  386.7370398729688 459.2916193419558 0  392.4520147244077 455.444453565817 0  398.0588135356345 451.4412761437442 0  403.5531785622926 447.285127045646 0  408.9309374414144 442.9791624087773 0  414.1880064015299 438.5266521049243 0  419.3203932989752 433.9309773069245 0  424.324200661095 429.1956279150535 0  429.1956286596235 424.3241998957182 0  433.9309780058756 419.3203925397119 0  438.5266527445345 414.1880056671062 0  442.9791630130591 408.9309367076756 0  447.2851276060475 403.5531778422888 0  451.4412766621026 398.0588128303826 0  455.4444540361634 392.4520140460735 0  459.2916197786263 386.7370392045948 0  462.9798524073514 380.9182281752347 0  466.5063511234856 374.9999996927758 0  469.8684379657123 368.9868479560565 0  473.0635598144817 362.8833392617846 0  476.0892903190255 356.6941085676214 0  478.9433317963513 350.4238558609745 0  481.6235169154735 344.0773427117675 0  484.12781039012 337.6593885555221 0  486.4543105028062 331.1748670749914 0  488.601250531677 324.6287025528375 0  490.5670001317469 318.0258660188321 0  492.3500665291326 311.3713716102628 0  493.949095695951 304.6702726271575 0  495.3628733416623 297.9276578347343 0  496.5903258712341 291.1486474470129 0  497.6305211749058 284.3383893426084 0  498.4826693388848 277.502055163614 0  499.1461232580606 270.6448362909296 0  499.6203791109319 263.7719400417897 0  499.9050767571306 256.8885855596534 0  499.9050767559877 243.1114143988867 0  499.6203791069493 236.2280598860241 0  499.1461232485393 229.3551635941651 0  498.4826693235677 222.4979446979962 0  497.6305211491849 215.6616104719064 0  496.5903258357701 208.8513523404629 0  495.3628732906988 202.0723419043604 0  493.9490956264813 195.3297270628552 0  492.3500664487791 188.6286280724281 0  490.5670000344809 181.9741336371959 0  488.6012504175981 175.3712970824318 0  486.4543103623226 168.8251325157939 0  484.1278102222298 162.3406109960628 0  481.6235167152198 155.9226567951971 0  478.9433315621651 149.5761436051346 0  476.0892900516498 143.3058908657982 0  473.063559513628 137.1166601437124 0  469.8684376406648 131.0131514433083 0  466.5063507675389 124.9999996907064 0  462.9798520124137 119.0817711822745 0  459.2916193464549 113.2629601339176 0  455.4444535642773 107.5479852733717 0  451.4412761528674 101.9411864767781 0  447.2851270583545 96.44682145403524 0  442.9791624165781 91.06906256805769 0  438.5266521117469 85.81199360630404 0  433.9309773156125 80.67960671046254 0  429.1956279150353 75.67579933888632 0  424.3241998888952 70.80437133373906 0  419.3203925223282 66.06902197812161 0  414.1880056411937 61.47334723289828 0  408.9309366751728 57.0208369601728 0  403.5531778009394 52.71487236176898 0  398.058812796452 48.55872331295853 0  392.4520140187753 44.55554594490843 0  386.7370391799677 40.70838020528396 0  380.9182281475119 37.02014757560744 0  374.9999996718656 33.49364886444181 0  368.9868479340393 30.13156202237255 0  362.8833392380029 26.93644017348339 0  356.6941085456942 23.91070967062674 0  350.4238558420009 21.0566681953261 0  344.0773426899492 18.37648307566465 0  337.6593885328982 15.87218960140942 0  331.1748670549786 13.54568949032341 0  324.6287025315056 11.39874946165088 0  318.0258660010876 9.432999863235466 0  311.3713716017894 7.649933468721599 0  304.6702726190621 6.050904302234756 0  297.9276578269805 4.637126656823085 0  291.148647441857 3.409674127905504 0  284.3383893425031 2.369478825079682 0  277.502055159398 1.517330660648639 0  270.6448362875833 0.853876741662134 0  263.7719400401456 0.3796208889774277 0  256.8885855592052 0.09492324285704967 0  243.1114143979462 0.09492324403817065 0  236.2280598850882 0.3796208931023841 0  229.3551635938215 0.8538767514891958 0  222.4979446968584 1.517330676558146 0  215.6616104703111 2.369478851036291 0  208.8513523382973 3.409674164591252 0  202.0723419066374 4.637126708856528 0  195.3297270659513 6.050904372824903 0  188.628628074828 7.649933550613184 0  181.9741336377093 9.432999965373938 0  175.3712970793675 11.39874958336037 0  168.8251325057572 13.54568964112298 0  162.340610986655 15.87218978129263 0  155.9226567874317 18.37648328793418 0  149.576143602509 21.05666843898663 0  143.3058908718157 23.91070994551046 0  137.1166601505524 26.93644048291054 0  131.0131514451933 30.13156235831508 0  124.9999996848412 33.49364923584736 0  119.0817711715717 37.0201479941652 0  113.2629601211624 40.70838066187849 0  107.5479852622251 44.55554644345162 0  101.9411864693332 48.55872385260452 0  96.44682143286516 52.71487295812284 0  91.06906254351222 57.02083760363669 0  85.81199358272519 61.4733479087879 0  80.67960667988106 66.06902271253972 0  75.67579930062769 70.80437212218331 0  70.80437129287643 75.67580015310926 0  66.06902193673014 80.67960752263491 0  61.47334718684866 85.81199441168215 0  57.02083692524275 91.0690633672404 0  52.71487232786438 96.44682224262129 0  48.55872328070024 101.941187247437 0  44.55554591578033 107.5479860232332 0  40.7083801742321 113.2629608675606 0  37.02014754791168 119.0817718975441 0  33.49364883372994 125.000000381329 0  30.13156199866361 131.0131521097709 0  26.9364401549829 137.1166607985551 0  23.91070965524918 143.3058914868915 0  21.05666818346614 149.576144185037 0  18.37648306853811 155.9226573275967 0  15.8721895918909 162.3406114925245 0  13.54568948170046 168.8251329701392 0  11.39874945301878 175.3712974960928 0  9.432999857087736 181.9741340206533 0  7.649933466342702 188.6286284076045 0  6.050904301250966 195.3297273853278 0  4.637126656808988 202.0723421730917 0  3.409674127767772 208.8513525589684 0  2.369478824521138 215.6616106615248 0  1.517330660909465 222.4979448382452 0  0.8538767414496533 229.355163714981 0  0.3796208887135322 236.2280599646376 0  0.09492324266324204 243.1114144478261 0  0.0949232442452228 256.8885856095658 0  0.3796208935834784 263.7719401236316 0  0.8538767530323526 270.6448364248016 0  1.517330679476544 277.5020553295092 0  2.369478854618649 284.3383895555228 0  3.409674170191892 291.1486476952655 0  4.6371267162381 297.9276581311522 0  6.050904381420935 304.6702729724059 0  7.649933562385399 311.3713719716595 0  9.43299997979841 318.0258664133013 0  11.3987495994252 324.6287029719946 0  13.54568965885832 331.174867545904 0  15.87218979367188 337.6593890464085 0  18.37648329843151 344.0773432384132 0  21.05666844777872 350.423856417535 0  23.91070995156048 356.6941091410045 0  26.93644048988043 362.8833398632205 0  30.13156235982007 368.9868485575877 0  33.49364924138357 375.0000003247478 0  37.0201480006036 380.9182288389023 0  40.70838066758398 386.7370398875706 0  44.55554644477201 392.4520147396792 0  48.55872386086904 398.0588135419111 0  52.71487295981296 403.5531785693063 0  57.02083760525949 408.9309374584583 0  61.47334790862246 414.1880064170849 0  66.06902271205095 419.320393319588 0  70.80437211216579 424.3242006890749 0  75.67580013809859 429.195628692521 0  80.6796075127923 433.930978054209 0  85.81199439754931 438.5266528008431 0  91.06906334717917 442.9791630582355 0  96.44682221438322 447.2851276501571 0  101.9411872243843 451.441276702356 0  107.5479859945825 455.4444540643537 0  113.2629608446994 459.2916198108319 0  119.0817718768376 462.9798524393601 0  125.0000003647644 466.5063511567065 0  131.0131521012763 469.8684379967393 0  137.1166607840049 473.0635598376539 0  143.3058914748804 476.0892903390826 0  149.5761441732679 478.9433318113714 0  155.9226573130112 481.6235169255377 0  162.3406114779862 484.1278104026658 0  168.8251329570439 486.4543105138039 0  175.3712974805475 488.601250542119 0  181.9741340135204 490.5670001408953 0  188.6286284005059 492.3500665318597 0  195.3297273788229 493.9490956972913 0  202.0723421640089 495.3628733414168 0  208.8513525529672 496.5903258712308 0  215.6616106544547 497.6305211744985 0  222.4979448327038 498.4826693384772 0  229.3551637102845 499.1461232581612 0  236.2280599621369 499.6203791111485 0  243.1114144470173 499.9050767573145 0  155.2373389820306 474.8197567317462 0  25.36256300907667 153.9152755065208 0  432.3709625126712 412.6214396304305 0  6.013151705810699 246.637913163471 0  246.6379131630491 493.986848294322 0  338.6995838441862 22.68244767887072 0  477.3175523131281 338.6995838660569 0  493.9868482700757 246.6379131399102 0  246.6201155078769 6.218451882810491 0  417.6179310263282 72.7156044707053 0  102.2232990934413 445.0100869616822 0  63.66330858966404 92.20354579482142 0  391.3105220491464 50.73522820883105 0  72.79295043967942 418.0702734974704 0  448.290574428537 108.25674339002 0  402.4604651193511 440.7462829841712 0  97.55317348421397 59.11376320116034 0  136.7376477664901 33.58246472647134 0  363.3288394375288 465.6947312928271 0  44.0678766556007 381.0860953771871 0  469.6905266180034 142.3890690100806 0  22.68244791668644 338.6995843487432 0  338.699584349159 477.317552078365 0  173.389488083762 18.6681884918202 0  483.4809734778481 179.7121987795732 0  13.50237455842738 306.4709525540879 0  305.9825168523021 487.24416992
[...]
<PointData  Vectors="f_12"> 
<DataArray  type="Float64"  Name="f_12"  NumberOfComponents="3" format="ascii">0.0000000000000000e+00 8.8374773998850387e-01 2.4009713789254622e-02  0.0000000000000000e+00 7.3291893488759985e-01 1.3472412085362888e-02  0.0000000000000000e+00 9.3036242605070785e-01 1.2386297407437472e-01  0.0000000000000000e+00 3.1021989102139463e-01 7.5753105762317264e-03  0.0000000000000000e+00 9.3004773188303902e-01 1.2457881704140904e-01  0.0000000000000000e+00 9.2986511455248122e-01 1.2499233577136581e-01  0.0000000000000000e+00 9.2975525971005368e-01 1.2524136259444293e-01  0.0000000000000000e+00 9.2976130774555366e-01 1.2522683421613517e-01  0.0000000000000000e+00 9.2986347204395980e-01 1.2499522303888361e-01  0.0000000000000000e+00 9.3006545494349668e-01 1.2453794385132892e-01  0.0000000000000000e+00 9.3036155836347445e-01 1.2386600805150981e-01  0.0000000000000000e+00 9.3074016740284460e-01 1.2300366092610035e-01  0.0000000000000000e+00 9.3120129374583283e-01 1.2194875739616182e-01  0.0000000000000000e+00 9.3174599252402335e-01 1.2069566761877924e-01  0.0000000000000000e+00 9.3239948471277712e-01 1.1918158290776634e-01  0.0000000000000000e+00 9.3305229409622525e-01 1.1766062855384517e-01  0.0000000000000000e+00 9.3384499943412225e-01 1.1579167813201317e-01  0.0000000000000000e+00 9.3462307497048258e-01 1.1393619099313083e-01  0.0000000000000000e+00 9.3544667247693325e-01 1.1194726988481207e-01  0.0000000000000000e+00 9.3629398606784031e-01 1.0987378401038456e-01  0.0000000000000000e+00 9.3713966166063389e-01 1.0776838241131072e-01  0.0000000000000000e+00 9.3799970444819403e-01 1.0557819875156475e-01  0.0000000000000000e+00 9.3885929072363594e-01 1.0334129383052934e-01  0.0000000000000000e+00 9.3969909749261260e-01 1.0110472588292713e-01  0.0000000000000000e+00 9.4054692708923981e-01 9.8786512761585885e-02  0.0000000000000000e+00 9.4141261690997646e-01 9.6344944137946337e-02  0.0000000000000000e+00 9.4229718678935226e-01 9.3766820177551377e-02  0.0000000000000000e+00 9.4314853346067884e-01 9.1187056620471482e-02  0.0000000000000000e+00 9.4397083244015489e-01 8.8573348407402219e-02  0.0000000000000000e+00 9.4476528037207874e-01 8.5898256345138924e-02  0.0000000000000000e+00 9.4547781955667265e-01 8.3317301133634405e-02  0.0000000000000000e+00 9.4611632705906412e-01 8.0781248719518084e-02  0.0000000000000000e+00 9.4668181438276888e-01 7.8280759250782747e-02  0.0000000000000000e+00 9.4717472776781830e-01 7.5802674449587507e-02  0.0000000000000000e+00 9.4760480255870738e-01 7.3250880058996867e-02  0.0000000000000000e+00 9.4795548776557892e-01 7.0675660719432112e-02  0.0000000000000000e+00 9.4821108022748102e-01 6.8119325990249738e-02  0.0000000000000000e+00 9.4834846308301990e-01 6.5584342166866594e-02  0.0000000000000000e+00 9.4834471352579142e-01 6.3124105485892854e-02  0.0000000000000000e+00 9.4819788983456599e-01 6.0784746425409340e-02  0.0000000000000000e+00 9.4790624577816462e-01 5.8524371899289537e-02  0.0000000000000000e+00 9.4745257217921131e-01 5.6245757489600798e-02  0.0000000000000000e+00 9.4681921636006317e-01 5.3941879599151650e-02  0.0000000000000000e+00 9.4599169724949317e-01 5.1699301277740049e-02  0.0000000000000000e+00 9.4495019568236949e-01 4.9535667078242987e-02  0.0000000000000000e+00 9.4369244606909863e-01 4.7468192408072388e-02  0.0000000000000000e+00 9.4220204401841889e-01 4.5495759456231001e-02  0.0000000000000000e+00 9.4045536448081746e-01 4.3586369831077089e-02  0.0000000000000000e+00 9.3837752602022129e-01 4.1666549101474014e-02  0.0000000000000000e+00 9.3599795244296180e-01 3.9796342151774564e-02  0.0000000000000000e+00 9.3330140834471920e-01 3.8018423922527439e-02  0.0000000000000000e+00 9.3029671557831761e-01 3.6340874247884035e-02  0.0000000000000000e+00 9.2694673334196043e-01 3.4749932364503251e-02  0.0000000000000000e+00 9.2316467456336782e-01 3.3195172455080003e-02  0.0000000000000000e+00 9.1892975974218660e-01 3.1676800053450888e-02  0.0000000000000000e+00 9.1425710887822365e-01 3.0223395681538177e-02  0.0000000000000000e+00 9.0912985220854525e-01 2.8843042084829698e-02  0.0000000000000000e+00 9.0357463853526998e-01 2.7544135959633929e-02  0.0000000000000000e+00 8.9754513876841546e-01 2.6301878073780854e-02  0.0000000000000000e+00 8.9115388346266555e-01 2.5153399633793400e-02  0.0000000000000000e+00 8.7600431288681657e-01 2.2900516617905632e-02  0.0000000000000000e+00 8.6774201573174581e-01 2.1877316803448173e-02  0.0000000000000000e+00 8.5907890732754777e-01 2.0944141204407928e-02  0.0000000000000000e+00 8.4969856509013897e-01 2.0031943893875109e-02  0.0000000000000000e+00 8.3968111906060983e-01 1.9163028213987243e-02  0.0000000000000000e+00 8.2898219598190659e-01 1.8323503905992529e-02  0.0000000000000000e+00 8.1783571213597284e-01 1.7548435270849948e-02  0.0000000000000000e+00 8.0627854219369266e-01 1.6832329282372573e-02  0.0000000000000000e+00 7.9421056931624756e-01 1.6157675448747830e-02  0.0000000000000000e+00 7.8151926643472303e-01 1.5512708845148077e-02  0.0000000000000000e+00 7.6816579376592709e-01 1.4891241838908015e-02  0.0000000000000000e+00 7.5448638360076592e-01 1.4314358130936735e-02  0.0000000000000000e+00 7.4054184271222334e-01 1.3781974566954444e-02  0.0000000000000000e+00 7.2639202681838588e-01 1.3291649107653144e-02  0.0000000000000000e+00 7.1185991533908943e-01 1.2827932461688554e-02  0.0000000000000000e+00 6.9688038653788964e-01 1.2385292672590581e-02  0.0000000000000000e+00 6.8156802636635772e-01 1.1964780062482487e-02  0.0000000000000000e+00 6.6622147211622473e-01 1.1577526082351304e-02  0.0000000000000000e+00 6.5101555166217029e-01 1.1225913099416221e-02  0.0000000000000000e+00 6.3589515323638623e-01 1.0902694660294636e-02  0.0000000000000000e+00 6.2061333104912431e-01 1.0596791456778507e-02  0.0000000000000000e+00 6.0525552988407227e-01 1.0308765482554867e-02  0.0000000000000000e+00 5.8980650137253054e-01 1.0035974069053570e-02  0.0000000000000000e+00 5.7467016129042525e-01 9.7864125015443299e-03  0.0000000000000000e+00 5.5997362570999076e-01 9.5617859628812519e-03  0.0000000000000000e+00 5.4573622583546244e-01 9.3597827346771460e-03  0.0000000000000000e+00 5.3179311463645029e-01 9.1745334264676098e-03  0.0000000000000000e+00 5.1797091982236221e-01 9.0008060882155738e-03  0.0000000000000000e+00 5.0426173436420341e-01 8.8357222886707339e-03  0.0000000000000000e+00 4.9081003846412391e-01 8.6831606495858648e-03  0.0000000000000000e+00 4.7787345017111277e-01 8.5458021910203730e-03  0.0000000000000000e+00 4.6560346711265488e-01 8.4250251881295667e-03  0.0000000000000000e+00 4.5394489305595781e-01 8.3190567344775118e-03  0.0000000000000000e+00 4.4289464594382161e-01 8.2254281498541360e-03  0.0000000000000000e+00 4.3235058284464062e-01 8.1415436179852283e-03  0.0000000000000000e+00 4.2191989928641316e-01 8.0617521901551557e-03  0.0000000000000000e+00 4.1176290316117342e-01 7.9883026219030352e-03  0.0000000000000000e+00 4.0218322107747667e-01 7.9240897434411546e-03  0.0000000000000000e+00 3.9293108908785762e-01 7.8655787825773638e-03  0.0000000000000000e+00 3.8415290137558539e-01 7.8145749135924529e-03  0.0000000000000000e+00 3.7627846754138627e-01 7.7735500094548672e-03  0.0000000000000000e+00 3.6895181288427392e-01 7.7402900364283963e-03  0.0000000000000000e+00 3.6220382486036246e-01 7.7118386414882136e-03  0.0000000000000000e+00 3.5590535672443013e-01 7.6877817082778585e-03  0.0000000000000000e+00 3.5004702242769364e-01 7.6670601967959448e-03  0.0000000000000000e+00 3.4455665319426587e-01 7.6491775184572156e-03  0.0000000000000000e+00 3.3945655975378658e-01 7.6338174834803254e-03  0.0000000000000000e+00 3.3476059394282953e-01 7.6208667803969246e-03  0.0000000000000000e+00 3.3038443576066695e-01 7.6096602676153369e-03  0.0000000000000000e+00 3.2634735788693120e-01 7.5997575671034427e-03  0.0000000000000000e+00 3.2275681685717034e-01 7.5919278408191296e-03  0.0000000000000000e+00 3.1963110704554715e-01 7.5861641553882893e-03  0.0000000000000000e+00 3.1697864313999990e-01 7.5826840753916549e-03  0.0000000000000000e+00 3.1464342042250293e-01 7.5799220298435888e-03  0.0000000000000000e+00 3.1277228987467282e-01 7.5778212180731951e-03  0.0000000000000000e+00 3.1127044841930790e-01 7.5760826405617092e-03  0.0000000000000000e+00 3.0974940411446611e-01 7.5758932654064592e-03  0.0000000000000000e+00 3.0873155976807326e-01 7.5726515120918877e-03  0.0000000000000000e+00 3.0920923920850418e-01 7.5747792322277841e-03  0.0000000000000000e+00 3.0962005657279046e-01 7.5750366069537722e-03  0.0000000000000000e+00 3.1033943462174529e-01 7.5754195312497125e-03  0.0000000000000000e+00 3.1149597929030548e-01 7.5768788958603030e-03  0.0000000000000000e+00 3.1307797887031097e-01 7.5788868905685746e-03  0.0000000000000000e+00 3.1492931602864399e-01 7.5810945725107342e-03  0.0000000000000000e+00 3.1717267792630555e-01 7.5841537047152928e-03  0.0000000000000000e+00 3.1932075209383060e-01 7.5861169395770554e-03  0.0000000000000000e+00 3.2248585262329121e-01 7.5924419192628760e-03  0.0000000000000000e+00 3.2578198229457117e-01 7.5993827981789691e-03  0.0000000000000000e+00 3.2936323982727633e-01 7.6078132799837208e-03  0.0000000000000000e+00 3.3306756278813726e-01 7.6159068428099655e-03  0.0000000000000000e+00 3.3713346641453923e-01 7.6262348950876784e-03  0.0000000000000000e+00 3.4163340116255136e-01 7.6397073659290856e-03  0.0000000000000000e+00 3.4626112537158754e-01 7.6540086269858204e-03  0.0000000000000000e+00 3.5110933490536089e-01 7.6694928356993205e-03  0.0000000000000000e+00 3.5619398557521192e-01 7.6869260412095151e-03  0.0000000000000000e+00 3.6156747837024827e-01 7.7072158854135479e-03  0.0000000000000000e+00 3.6732148307567070e-01 7.7311927026260073e-03  0.0000000000000000e+00 3.7345384021835076e-01 7.7588928461568233e-03  0.0000000000000000e+00 3.7989172511848229e-01 7.7900528453167250e-03  0.0000000000000000e+00 3.8669992086320382e-01 7.8260256370736286e-03  0.0000000000000000e+00 3.9391526130397431e-01 7.8674521267487422e-03  0.0000000000000000e+00 4.0148755934630698e-01 7.9143447811435130e-03  0.0000000000000000e+00 4.0936697964187396e-01 7.9664374099777599e-03  0.0000000000000000e+00 4.1745415146946052e-01 8.0230179980715442e-03  0.0000000000000000e+00 4.2569436893708379e-01 8.0833965613514303e-03  0.0000000000000000e+00 4.3403645708715405e-01 8.1471598503982876e-03  0.0000000000000000e+00 4.4248937864342414e-01 8.2144065785416161e-03  0.0000000000000000e+00 4.5107052591206975e-01 8.2854009559333568e-03  0.0000000000000000e+00 4.5991179029884377e-01 8.3623876604978151e-03  0.0000000000000000e+00 4.6911360799311430e-01 8.4478584808449324e-03  0.0000000000000000e+00 4.7881160554290181e-01 8.5435815654761483e-03  0.0000000000000000e+00 4.8889607105578387e-01 8.6492312587946752e-03  0.0000000000000000e+00 4.9928708011931122e-01 8.7642714408795071e-03  0.0000000000000000e+00 5.0983242471964163e-01 8.8862529393452950e-03  0.0000000000000000e+00 5.2041613331733005e-01 9.0138393334255069e-03  0.0000000000000000e+00 5.3094759954242998e-01 9.1461729746074600e-03  0.0000000000000000e+00 5.4168245114546121e-01 9.2865981141591718e-03  0.0000000000000000e+00 5.5249671331193340e-01 9.4346300788663226e-03  0.0000000000000000e+00 5.6339755314928053e-01 9.5917213905312333e-03  0.0000000000000000e+00 5.7478294046943834e-01 9.7649458771909160e-03  0.0000000000000000e+00 5.8663394630991506e-01 9.9578438321029222e-03  0.0000000000000000e+00 5.9875213747511524e-01 1.0166719999782265e-02  0.0000000000000000e+00 6.1066508179270984e-01 1.0381522943535098e-02  0.0000000000000000e+00 6.2286813647890849e-01 1.0613998921396977e-02  0.0000000000000000e+00 6.3475868761032028e-01 1.0850291782496434e-02  0.0000000000000000e+00 6.4667378168423262e-01 1.1098403517971447e-02  0.0000000000000000e+00 6.5862090717844002e-01 1.1365668610405492e-02  0.0000000000000000e+00 6.7095335950980683e-01 1.1658976541105577e-02  0.0000000000000000e+00 6.8358846454108668e-01 1.1983143602419503e-02  0.0000000000000000e+00 6.9624679847178894e-01 1.2331056907286159e-02  0.0000000000000000e+00 7.0870747807626355e-01 1.2694831866676939e-02  0.0000000000000000e+00 7.2090287061133096e-01 1.3073027159505424e-02  0.0000000000000000e+00 7.4489169012093415e-01 1.3900805672981910e-02  0.0000000000000000e+00 7.5689705508991678e-01 1.4368719672035360e-02  0.0000000000000000e+00 7.6889430976156647e-01 1.4881160508640278e-02  0.0000000000000000e+00 7.8069119456446823e-01 1.5427632284167084e-02  0.0000000000000000e+00 7.9210544637431002e-01 1.6001099708839544e-02  0.0000000000000000e+00 8.0310560452079804e-01 1.6601476245721121e-02  0.0000000000000000e+00 8.1379199189340745e-01 1.7241552178062492e-02  0.0000000000000000e+00 8.2428589891892634e-01 1.7938672832427529e-02  0.0000000000000000e+00 8.3457139317061391e-01 1.8701088792049004e-02  0.0000000000000000e+00 8.4449141062721611e-01 1.9520257008363903e-02  0.0000000000000000e+00 8.5388618484581191e-01 2.0380810658874586e-02  0.0000000000000000e+00 8.6273478518874935e-01 2.1278059249897553e-02  0.0000000000000000e+00 8.7112867347534118e-01 2.2235948611378450e-02  0.0000000000000000e+00 8.7918318169629883e-01 2.3282544320313608e-02  0.0000000000000000e+00 8.8681317667639659e-01 2.4410364049262993e-02  0.0000000000000000e+00 8.9394471554735955e-01 2.5610042646020997e-02  0.0000000000000000e+00 9.0052911091994203e-01 2.6865095896289586e-02  0.0000000000000000e+00 9.0657663995137028e-01 2.8180166156590948e-02  0.0000000000000000e+00 9.1220952143561929e-01 2.9608880450984709e-02  0.0000000000000000e+00 9.1741185371472023e-01 3.1144687599123266e-02  0.0000000000000000e+00 9.2215005020004071e-01 3.2778507730545386e-02  0.0000000000000000e+00 9.2638722917987126e-01 3.4475950148880788e-02  0.0000000000000000e+00 9.3016815682931420e-01 3.6249926730737354e-02  0.0000000000000000e+00 9.3355259302934612e-01 3.8151848387857935e-02  0.0000000000000000e+00 9.3655377811681761e-01 4.0194278567680548e-02  0.0000000000000000e+00 9.3916549567101959e-01 4.2349890237403230e-02  0.0000000000000000e+00 9.4140125339209568e-01 4.4580096484872093e-02  0.0000000000000000e+00 9.4326396987802097e-01 4.6875592577884158e-02  0.0000000000000000e+00 9.4480829506285602e-01 4.9313189972135296e-02  0.0000000000000000e+00 9.4604824707523916e-01 5.1892599625068002e-02  0.0000000000000000e+00 9.4699687757065787e-01 5.4593393602284386e-02  0.0000000000000000e+00 9.4767517746644714e-01 5.7363785634290565e-02  0.0000000000000000e+00 9.4811045141583783e-01 6.0176528269710719e-02  0.0000000000000000e+00 9.4831552766362504e-01 6.3089541817437353e-02  0.0000000000000000e+00 9.4829910560470698e-01 6.6153921882595376e-02  0.0000000000000000e+00 9.4808259012074847e-01 6.9306745043472021e-02  0.0000000000000000e+00 9.4769568680334371e-01 7.2504921206046069e-02  0.0000000000000000e+00 9.4716905518172334e-01 7.5729269356710371e-02  0.0000000000000000e+00 9.4652620809416976e-01 7.8919597508413916e-02  0.0000000000000000e+00 9.4576132662511847e-01 8.2139213595310914e-02  0.0000000000000000e+00 9.4487471114186183e-01 8.5440384726098981e-02  0.0000000000000000e+00 9.4388874164292857e-01 8.8780751645173628e-02  0.0000000000000000e+00 9.4282326871422939e-01 9.2133020372967708e-02  0.0000000000000000e+00 9.4174749628095922e-01 9.5340648455872742e-02  0.0000000000000000e+00 9.4065283602931382e-01 9.8454962347018130e-02  0.0000000000000000e+00 9.3957242797891272e-01 1.0141218229494887e-01  0.0000000000000000e+00 9.3851588310213008e-01 1.0421674701473574e-01  0.0000000000000000e+00 9.3747084875509601e-01 1.0691475411081525e-01  0.0000000000000000e+00 9.3643977467621309e-01 1.0950064935091795e-01  0.0000000000000000e+00 9.3542365856349852e-01 1.1199132470364453e-01  0.0000000000000000e+00 9.3443124850304593e-01 1.1438436152973058e-01  0.0000000000000000e+00 9.3351348961381886e-01 1.1656402979540934e-01  0.0000000000000000e+00 9.3268416383758612e-01 1.1850871524844162e-01  0.0000000000000000e+00 9.3194730422023819e-01 1.2022183029648502e-01  0.0000000000000000e+00 9.3131645138274211e-01 1.2167897923152983e-01  0.0000000000000000e+00 9.3080132124174197e-01 1.2286051898613551e-01  0.0000000000000000e+00 9.4348671681039131e-01 9.0058179833859386e-02  0.0000000000000000e+00 5.5750738566372826e-01 9.5101330946520714e-03  0.0000000000000000e+00 9.4748339635709355e-01 7.4006334303457197e-02  0.0000000000000000e+00 7.2786189906555687e-01 1.3306168885150757e-02  0.0000000000000000e+00 9.3090482556188447e-01 1.2261687127844084e-01  0.0000000000000000e+00 3.6090737809410894e-01 7.7123982815133036e-03  0.0000000000000000e+00 9.4118053957174375e-01 4.4352387072143284e-02  0.0000000000000000e+00 8.7968332364856894e-01 2.3402077237660971e-02  0.0000000000000000e+00 3.1215824101551415e-01 7.5860828589016513e-03  0.0000000000000000e+00 4.9855326991968885e-01 8.7731943672882309e-03  0.0000000000000000e+00 9.4821420643052157e-01 6.1342306453583247e-02  0.0000000000000000e+00 4.4850027611931470e-01 8.2688414561250326e-03  0.0000000000000000e+00 4.3778617184974356e-01 8.1879346730950008e-03  0.0000000000000000e+00 9.4235097134031742e-01 4.5693641514863451e-02  0.0000000000000000e+00 5.9792295688940389e-01 1.0179400886393474e-02  0.0000000000000000e+00 9.4367912764827366e-01 8.9502885009264913e-02  0.0000000000000000e+00 3.9178176425946332e-01 7.8605544556458514e-03  0.0000000000000000e+00 3.5050244144424109e-01 7.6734853767452729e-03  0.0000000000000000e+00 9.3785408006309179e-01 1.0594347036751531e-01  0.0000000000000000e+00 9.2006813128062581e-01 3.2037168671647187e-02  0.0000000000000000e+00 6.8898424343084308e-01 1.2165851480078033e-02  0.0000000000000000e+00 8.7529146736097829e-01 2.2761085534958408e-02  0.0000000000000000e+00 9.3449846413485094e-01 1.1422678739853245e-01  0.0000000000000000e+00 3.2671776015367027e-01 7.6092957488822213e-03  0.0000000000000000e+00 7.7328073037787060e-01 1.5123960633047499e-02  0.0000000000000000e+00 8.2997517307148660e-01 1.8356711554232064e-02  0.0000000000000000e+00 9.3127607480945496e-01 1.2176827611280711e-01  0.0000000000000000e+00 9.3717241653205152e-01 1.0765841829019222e-01  0.0000000000000000e+00 6.3008838219792018e-01 1.0761045639624591e-02  0.0000000000000000e+00 3.3047223562339556e-01 7.6170009381476278e-03  0.0000000000000000e+00 9.2482489577440530e-01 3.3855934909066257e-02  0.0000000000000000e+00 9.4808219460978671e-01 5.9803869822089621e-02  0.0000000000000000e+00 3.1433417375458039e-01 7.5871652338461645e-03  0.0000000000000000e+00 8.2238596294687372e-01 1.7855593208364936e-02  0.0000000000000000e+00 7.8706077791478279e-01 1.5746930955635129e-02  0.0000000000000000e+00 9.3013629923211794e-01 1.2436935410726527e-01  0.0000000000000000e+00 3.9933508717066918e-01 7.9101903726180763e-03  0.0000000000000000e+00 5.0611684495653431e-01 8.8472866914068148e-03  0.0000000000000000e+00 9.3336986377143771e-01 1.1689366243676746e-01  0.0000000000000000e+00 9.4694163776567897e-01 7.6915648000800377e-02  0.0000000000000000e+00 6.7994261098899378e-01 1.1892967169670938e-02  0.0000000000000000e+00 3.1819183841220638e-01 7.5930794245085732e-03  0.0000000000000000e+00 9.0667706655101021e-01 2.8253828713113480e-02  0.0000000000000000e+00 9.4125003375088934e-01 9.6793704023744973e-02  0.0000000000000000e+00 9.3443394947041925e-01 3.8735370916479828e-02  0.0000000000000000e+00 3.1128475542637113e-01 7.5835520853667774e-03  0.0000000000000000e+00 3.4393035669626865e-01 7.6530940693407441e-03  0.0000000000000000e+00 8.5396944390086504e-01 2.0434853960028362e-02  0.0000000000000000e+00 5.3910294627797040e-01 9.2730975474598753e-03  0.0000000000000000e+00 9.4027755825947246e-01 9.9480843640655611e-02  0.0000000000000000e+00 9.4831306870309562e-01 6.6397335596109483e-02  0.0000000000000000e+00 9.3515898991853408e-01 3.9198542807909291e-02  0.0000000000000000e+00 3.7233464080907175e-01 7.7596385073698997e-03  0.0000000000000000e+00 9.0398835598276739e-01 2.7595817652169122e-02  0.0000000000000000e+00 5.9414143043167700e-01 1.0090968071435004e-02  0.0000000000000000e+00 9.4633317823922514e-01 5.2574106539318231e-02  0.0000000000