<?xml version="1.0"?>
<VTKFile type="UnstructuredGrid"  version="0.1"  >
<UnstructuredGrid>
<Piece  NumberOfPoints="4940" NumberOfCells="9650">
<Points>
<DataArray  type="Float64"  NumberOfComponents="3"  format="ascii">500 250 0  0 250 0  250 500 0  250 0 0  256.8885856082646 499.9050767557906 0  263.7719401218049 499.6203791065173 0  270.6448364229772 499.1461232471188 0  277.5020553257866 498.4826693209355 0  284.3383895508592 497.6305211460281 0  291.1486476865662 496.5903258312597 0  297.9276581259182 495.3628732847843 0  304.6702729675493 493.9490956196674 0  311.3713719748657 492.3500664368026 0  318.0258664141369 490.5670000199653 0  324.6287029687753 488.6012504015818 0  331.1748675330201 486.4543103455647 0  337.6593890460416 484.1278102064655 0  344.0773432429536 481.6235166997244 0  350.4238564271474 478.9433315480048 0  356.694109139292 476.0892900492477 0  362.88333985546 473.0635595140469 0  368.9868485575419 469.8684376402048 0  375.0000003153078 466.5063507640667 0  380.9182288257928 462.9798520074548 0  386.7370398729688 459.2916193419558 0  392.4520147244077 455.444453565817 0  398.0588135356345 451.4412761437442 0  403.5531785622926 447.285127045646 0  408.9309374414144 442.9791624087773 0  414.1880064015299 438.5266521049243 0  419.3203932989752 433.9309773069245 0  424.324200661095 429.1956279150535 0  429.1956286596235 424.3241998957182 0  433.9309780058756 419.3203925397119 0  438.5266527445345 414.1880056671062 0  442.9791630130591 408.9309367076756 0  447.2851276060475 403.5531778422888 0  451.4412766621026 398.0588128303826 0  455.4444540361634 392.4520140460735 0  459.2916197786263 386.7370392045948 0  462.9798524073514 380.9182281752347 0  466.5063511234856 374.9999996927758 0  469.8684379657123 368.9868479560565 0  473.0635598144817 362.8833392617846 0  476.0892903190255 356.6941085676214 0  478.9433317963513 350.4238558609745 0  481.6235169154735 344.0773427117675 0  484.12781039012 337.6593885555221 0  486.4543105028062 331.1748670749914 0  488.601250531677 324.6287025528375 0  490.5670001317469 318.0258660188321 0  492.3500665291326 311.3713716102628 0  493.949095695951 304.6702726271575 0  495.3628733416623 297.9276578347343 0  496.5903258712341 291.1486474470129 0  497.6305211749058 284.3383893426084 0  498.4826693388848 277.502055163614 0  499.1461232580606 270.6448362909296 0  499.6203791109319 263.7719400417897 0  499.9050767571306 256.8885855596534 0  499.9050767559877 243.1114143988867 0  499.6203791069493 236.2280598860241 0  499.1461232485393 229.3551635941651 0  498.4826693235677 222.4979446979962 0  497.6305211491849 215.6616104719064 0  496.5903258357701 208.8513523404629 0  495.3628732906988 202.0723419043604 0  493.9490956264813 195.3297270628552 0  492.3500664487791 188.6286280724281 0  490.5670000344809 181.9741336371959 0  488.6012504175981 175.3712970824318 0  486.4543103623226 168.8251325157939 0  484.1278102222298 162.3406109960628 0  481.6235167152198 155.9226567951971 0  478.9433315621651 149.5761436051346 0  476.0892900516498 143.3058908657982 0  473.063559513628 137.1166601437124 0  469.8684376406648 131.0131514433083 0  466.5063507675389 124.9999996907064 0  462.9798520124137 119.0817711822745 0  459.2916193464549 113.2629601339176 0  455.4444535642773 107.5479852733717 0  451.4412761528674 101.9411864767781 0  447.2851270583545 96.44682145403524 0  442.9791624165781 91.06906256805769 0  438.5266521117469 85.81199360630404 0  433.9309773156125 80.67960671046254 0  429.1956279150353 75.67579933888632 0  424.3241998888952 70.80437133373906 0  419.3203925223282 66.06902197812161 0  414.1880056411937 61.47334723289828 0  408.9309366751728 57.0208369601728 0  403.5531778009394 52.71487236176898 0  398.058812796452 48.55872331295853 0  392.4520140187753 44.55554594490843 0  386.7370391799677 40.70838020528396 0  380.9182281475119 37.02014757560744 0  374.9999996718656 33.49364886444181 0  368.9868479340393 30.13156202237255 0  362.8833392380029 26.93644017348339 0  356.6941085456942 23.91070967062674 0  350.4238558420009 21.0566681953261 0  344.0773426899492 18.37648307566465 0  337.6593885328982 15.87218960140942 0  331.1748670549786 13.54568949032341 0  324.6287025315056 11.39874946165088 0  318.0258660010876 9.432999863235466 0  311.3713716017894 7.649933468721599 0  304.6702726190621 6.050904302234756 0  297.9276578269805 4.637126656823085 0  291.148647441857 3.409674127905504 0  284.3383893425031 2.369478825079682 0  277.502055159398 1.517330660648639 0  270.6448362875833 0.853876741662134 0  263.7719400401456 0.3796208889774277 0  256.8885855592052 0.09492324285704967 0  243.1114143979462 0.09492324403817065 0  236.2280598850882 0.3796208931023841 0  229.3551635938215 0.8538767514891958 0  222.4979446968584 1.517330676558146 0  215.6616104703111 2.369478851036291 0  208.8513523382973 3.409674164591252 0  202.0723419066374 4.637126708856528 0  195.3297270659513 6.050904372824903 0  188.628628074828 7.649933550613184 0  181.9741336377093 9.432999965373938 0  175.3712970793675 11.39874958336037 0  168.8251325057572 13.54568964112298 0  162.340610986655 15.87218978129263 0  155.9226567874317 18.37648328793418 0  149.576143602509 21.05666843898663 0  143.3058908718157 23.91070994551046 0  137.1166601505524 26.93644048291054 0  131.0131514451933 30.13156235831508 0  124.9999996848412 33.49364923584736 0  119.0817711715717 37.0201479941652 0  113.2629601211624 40.70838066187849 0  107.5479852622251 44.55554644345162 0  101.9411864693332 48.55872385260452 0  96.44682143286516 52.71487295812284 0  91.06906254351222 57.02083760363669 0  85.81199358272519 61.4733479087879 0  80.67960667988106 66.06902271253972 0  75.67579930062769 70.80437212218331 0  70.80437129287643 75.67580015310926 0  66.06902193673014 80.67960752263491 0  61.47334718684866 85.81199441168215 0  57.02083692524275 91.0690633672404 0  52.71487232786438 96.44682224262129 0  48.55872328070024 101.941187247437 0  44.55554591578033 107.5479860232332 0  40.7083801742321 113.2629608675606 0  37.02014754791168 119.0817718975441 0  33.49364883372994 125.000000381329 0  30.13156199866361 131.0131521097709 0  26.9364401549829 137.1166607985551 0  23.91070965524918 143.3058914868915 0  21.05666818346614 149.576144185037 0  18.37648306853811 155.9226573275967 0  15.8721895918909 162.3406114925245 0  13.54568948170046 168.8251329701392 0  11.39874945301878 175.3712974960928 0  9.432999857087736 181.9741340206533 0  7.649933466342702 188.6286284076045 0  6.050904301250966 195.3297273853278 0  4.637126656808988 202.0723421730917 0  3.409674127767772 208.8513525589684 0  2.369478824521138 215.6616106615248 0  1.517330660909465 222.4979448382452 0  0.8538767414496533 229.355163714981 0  0.3796208887135322 236.2280599646376 0  0.09492324266324204 243.1114144478261 0  0.0949232442452228 256.8885856095658 0  0.3796208935834784 263.7719401236316 0  0.8538767530323526 270.6448364248016 0  1.517330679476544 277.5020553295092 0  2.369478854618649 284.3383895555228 0  3.409674170191892 291.1486476952655 0  4.6371267162381 297.9276581311522 0  6.050904381420935 304.6702729724059 0  7.649933562385399 311.3713719716595 0  9.43299997979841 318.0258664133013 0  11.3987495994252 324.6287029719946 0  13.54568965885832 331.174867545904 0  15.87218979367188 337.6593890464085 0  18.37648329843151 344.0773432384132 0  21.05666844777872 350.423856417535 0  23.91070995156048 356.6941091410045 0  26.93644048988043 362.8833398632205 0  30.13156235982007 368.9868485575877 0  33.49364924138357 375.0000003247478 0  37.0201480006036 380.9182288389023 0  40.70838066758398 386.7370398875706 0  44.55554644477201 392.4520147396792 0  48.55872386086904 398.0588135419111 0  52.71487295981296 403.5531785693063 0  57.02083760525949 408.9309374584583 0  61.47334790862246 414.1880064170849 0  66.06902271205095 419.320393319588 0  70.80437211216579 424.3242006890749 0  75.67580013809859 429.195628692521 0  80.6796075127923 433.930978054209 0  85.81199439754931 438.5266528008431 0  91.06906334717917 442.9791630582355 0  96.44682221438322 447.2851276501571 0  101.9411872243843 451.441276702356 0  107.5479859945825 455.4444540643537 0  113.2629608446994 459.2916198108319 0  119.0817718768376 462.9798524393601 0  125.0000003647644 466.5063511567065 0  131.0131521012763 469.8684379967393 0  137.1166607840049 473.0635598376539 0  143.3058914748804 476.0892903390826 0  149.5761441732679 478.9433318113714 0  155.9226573130112 481.6235169255377 0  162.3406114779862 484.1278104026658 0  168.8251329570439 486.4543105138039 0  175.3712974805475 488.601250542119 0  181.9741340135204 490.5670001408953 0  188.6286284005059 492.3500665318597 0  195.3297273788229 493.9490956972913 0  202.0723421640089 495.3628733414168 0  208.8513525529672 496.5903258712308 0  215.6616106544547 497.6305211744985 0  222.4979448327038 498.4826693384772 0  229.3551637102845 499.1461232581612 0  236.2280599621369 499.6203791111485 0  243.1114144470173 499.9050767573145 0  155.2373389820306 474.8197567317462 0  25.36256300907667 153.9152755065208 0  432.3709625126712 412.6214396304305 0  6.013151705810699 246.637913163471 0  246.6379131630491 493.986848294322 0  338.6995838441862 22.68244767887072 0  477.3175523131281 338.6995838660569 0  493.9868482700757 246.6379131399102 0  246.6201155078769 6.218451882810491 0  417.6179310263282 72.7156044707053 0  102.2232990934413 445.0100869616822 0  63.66330858966404 92.20354579482142 0  391.3105220491464 50.73522820883105 0  72.79295043967942 418.0702734974704 0  448.290574428537 108.25674339002 0  402.4604651193511 440.7462829841712 0  97.55317348421397 59.11376320116034 0  136.7376477664901 33.58246472647134 0  363.3288394375288 465.6947312928271 0  44.0678766556007 381.0860953771871 0  469.6905266180034 142.3890690100806 0  22.68244791668644 338.6995843487432 0  338.699584349159 477.317552078365 0  173.389488083762 18.6681884918202 0  483.4809734778481 179.7121987795732 0  13.50237455842738 306.4709525540879 0  305.9825168523021 487.24416992
[...]
<PointData  Vectors="f_12"> 
<DataArray  type="Float64"  Name="f_12"  NumberOfComponents="3" format="ascii">0.0000000000000000e+00 2.1395266590690864e-02 1.1451811436862522e-01  0.0000000000000000e+00 1.5924320259944086e-02 2.6676877377011404e-01  0.0000000000000000e+00 8.5482470360159560e-02 2.5933966063554265e-02  0.0000000000000000e+00 1.8389138540042821e-01 1.0124117611727435e+00  0.0000000000000000e+00 8.5551097874007789e-02 2.6073820816059277e-02  0.0000000000000000e+00 8.5411718208006776e-02 2.6241011058378012e-02  0.0000000000000000e+00 8.5246384265990960e-02 2.6407185018627096e-02  0.0000000000000000e+00 8.4920292759599780e-02 2.6595509529033036e-02  0.0000000000000000e+00 8.4499252778443529e-02 2.6792366940760357e-02  0.0000000000000000e+00 8.3974369341299246e-02 2.6999998209709865e-02  0.0000000000000000e+00 8.3359979812604817e-02 2.7217110542654469e-02  0.0000000000000000e+00 8.2680334752954887e-02 2.7440637506852914e-02  0.0000000000000000e+00 8.1923643983272718e-02 2.7672356885167074e-02  0.0000000000000000e+00 8.1090775923482503e-02 2.7913301519377053e-02  0.0000000000000000e+00 8.0091150810659442e-02 2.8180927060003323e-02  0.0000000000000000e+00 7.9237156481132040e-02 2.8421222157233330e-02  0.0000000000000000e+00 7.8063603621535138e-02 2.8717871443706158e-02  0.0000000000000000e+00 7.7011149577655522e-02 2.8994998223175399e-02  0.0000000000000000e+00 7.5876953286123552e-02 2.9290367386727752e-02  0.0000000000000000e+00 7.4704491433832551e-02 2.9595418525048746e-02  0.0000000000000000e+00 7.3515486145265305e-02 2.9907483183068469e-02  0.0000000000000000e+00 7.2228957881617234e-02 3.0252479868069438e-02  0.0000000000000000e+00 7.0908603692858188e-02 3.0615390754997064e-02  0.0000000000000000e+00 6.9638303960316339e-02 3.0974950275635696e-02  0.0000000000000000e+00 6.8321345608566508e-02 3.1359526200455602e-02  0.0000000000000000e+00 6.6940510966306807e-02 3.1780482037351440e-02  0.0000000000000000e+00 6.5479932662266441e-02 3.2245446014861429e-02  0.0000000000000000e+00 6.4089185465729906e-02 3.2710418936632138e-02  0.0000000000000000e+00 6.2685722161114371e-02 3.3205033325104390e-02  0.0000000000000000e+00 6.1186108216692986e-02 3.3766218255325518e-02  0.0000000000000000e+00 5.9736617922220264e-02 3.4343112592913783e-02  0.0000000000000000e+00 5.8254806008915964e-02 3.4973011500777022e-02  0.0000000000000000e+00 5.6754660955783930e-02 3.5656425151350223e-02  0.0000000000000000e+00 5.5278503734928507e-02 3.6375347027610867e-02  0.0000000000000000e+00 5.3740535764301357e-02 3.7186073253120358e-02  0.0000000000000000e+00 5.2221388177959245e-02 3.8053904498615995e-02  0.0000000000000000e+00 5.0747669740214635e-02 3.8960167159637925e-02  0.0000000000000000e+00 4.9236062611662822e-02 3.9973697913104060e-02  0.0000000000000000e+00 4.7696767760625570e-02 4.1106672841859301e-02  0.0000000000000000e+00 4.6200727442606719e-02 4.2306773162222526e-02  0.0000000000000000e+00 4.4751736769819583e-02 4.3575614825985230e-02  0.0000000000000000e+00 4.3287089995681878e-02 4.4986771134444652e-02  0.0000000000000000e+00 4.1810305085273558e-02 4.6549833282205001e-02  0.0000000000000000e+00 4.0379870725016899e-02 4.8221821277154103e-02  0.0000000000000000e+00 3.8965580696662713e-02 5.0052754831680459e-02  0.0000000000000000e+00 3.7576183074585205e-02 5.2042770135630030e-02  0.0000000000000000e+00 3.6220959160805949e-02 5.4198408348785497e-02  0.0000000000000000e+00 3.4910516014500223e-02 5.6525178799675738e-02  0.0000000000000000e+00 3.3603744835903074e-02 5.9123570173810605e-02  0.0000000000000000e+00 3.2345112594115155e-02 6.1919243256497815e-02  0.0000000000000000e+00 3.1133331785012191e-02 6.4952116928441314e-02  0.0000000000000000e+00 2.9954548526205445e-02 6.8251730911967415e-02  0.0000000000000000e+00 2.8825747148143573e-02 7.1821507707405599e-02  0.0000000000000000e+00 2.7726175837829610e-02 7.5748831898386521e-02  0.0000000000000000e+00 2.6675076909845132e-02 8.0000573243834291e-02  0.0000000000000000e+00 2.5679002629048719e-02 8.4592785205209256e-02  0.0000000000000000e+00 2.4721871279848876e-02 8.9616004676839167e-02  0.0000000000000000e+00 2.3819021528715970e-02 9.5064078962390886e-02  0.0000000000000000e+00 2.2954565101166287e-02 1.0095506137988672e-01  0.0000000000000000e+00 2.2154972534273207e-02 1.0717346696539187e-01  0.0000000000000000e+00 2.0662620967315731e-02 1.2194748369617321e-01  0.0000000000000000e+00 2.0003860265246094e-02 1.3010714609619717e-01  0.0000000000000000e+00 1.9403869637128715e-02 1.3888189387917027e-01  0.0000000000000000e+00 1.8835609333221079e-02 1.4850821674562073e-01  0.0000000000000000e+00 1.8332870210391653e-02 1.5886766309993283e-01  0.0000000000000000e+00 1.7868744787643203e-02 1.7004071454332903e-01  0.0000000000000000e+00 1.7468383487987165e-02 1.8209021192476468e-01  0.0000000000000000e+00 1.7117717704491293e-02 1.9507805306069284e-01  0.0000000000000000e+00 1.6826593952622391e-02 2.0904024366934107e-01  0.0000000000000000e+00 1.6596470864124274e-02 2.2401936678569928e-01  0.0000000000000000e+00 1.6421239895997489e-02 2.4015191342043171e-01  0.0000000000000000e+00 1.6315318041756937e-02 2.5733233590353594e-01  0.0000000000000000e+00 1.6271967681213070e-02 2.7573352782177241e-01  0.0000000000000000e+00 1.6302823070109756e-02 2.9535294439147491e-01  0.0000000000000000e+00 1.6412867946898075e-02 3.1622225447265739e-01  0.0000000000000000e+00 1.6612164902593773e-02 3.3833876951499153e-01  0.0000000000000000e+00 1.6905944688814612e-02 3.6173998975273353e-01  0.0000000000000000e+00 1.7305321685930807e-02 3.8642214764197091e-01  0.0000000000000000e+00 1.7822699055607644e-02 4.1235378310776488e-01  0.0000000000000000e+00 1.8474591390707912e-02 4.3945395993175895e-01  0.0000000000000000e+00 1.9281882407523137e-02 4.6779400768159218e-01  0.0000000000000000e+00 2.0268320924851407e-02 4.9699688625608518e-01  0.0000000000000000e+00 2.1463221975280167e-02 5.2723227825498420e-01  0.0000000000000000e+00 2.2887987488814127e-02 5.5807722505574753e-01  0.0000000000000000e+00 2.4583970431676139e-02 5.8947757483719920e-01  0.0000000000000000e+00 2.6587913704280455e-02 6.2115821105596369e-01  0.0000000000000000e+00 2.8942231087014846e-02 6.5284865812006154e-01  0.0000000000000000e+00 3.1689934594094658e-02 6.8423525141422570e-01  0.0000000000000000e+00 3.4865082457170474e-02 7.1491024849503770e-01  0.0000000000000000e+00 3.8507684789926805e-02 7.4468983160152902e-01  0.0000000000000000e+00 4.2638678248078189e-02 7.7322098481646029e-01  0.0000000000000000e+00 4.7267039945931927e-02 8.0028064758221318e-01  0.0000000000000000e+00 5.2426112025789583e-02 8.2582364523507645e-01  0.0000000000000000e+00 5.8013070266956672e-02 8.4939630503504904e-01  0.0000000000000000e+00 6.3961709367045830e-02 8.7080047803993998e-01  0.0000000000000000e+00 7.0401957007225596e-02 8.9060138703615876e-01  0.0000000000000000e+00 7.7166185126416806e-02 9.0853056638818275e-01  0.0000000000000000e+00 8.4051912154853775e-02 9.2421146213521799e-01  0.0000000000000000e+00 9.1262250336782536e-02 9.3833707156621315e-01  0.0000000000000000e+00 9.8650212707730306e-02 9.5093187252606481e-01  0.0000000000000000e+00 1.0583742508567491e-01 9.6144360411975782e-01  0.0000000000000000e+00 1.1309290684537532e-01 9.7069481891645804e-01  0.0000000000000000e+00 1.2022471540469128e-01 9.7854301960108769e-01  0.0000000000000000e+00 1.2722131252790916e-01 9.8525986935488585e-01  0.0000000000000000e+00 1.3398597172841434e-01 9.9086348894316711e-01  0.0000000000000000e+00 1.4050660240412827e-01 9.9554690349181651e-01  0.0000000000000000e+00 1.4668329456576987e-01 9.9938005689154286e-01  0.0000000000000000e+00 1.5245176617481970e-01 1.0024751139302157e+00  0.0000000000000000e+00 1.5790452153469395e-01 1.0049983442983914e+00  0.0000000000000000e+00 1.6299420176533808e-01 1.0070188525565189e+00  0.0000000000000000e+00 1.6754710500441458e-01 1.0085882749649624e+00  0.0000000000000000e+00 1.7153589263953795e-01 1.0097562267749220e+00  0.0000000000000000e+00 1.7495899664856948e-01 1.0106423861389082e+00  0.0000000000000000e+00 1.7802647881145905e-01 1.0113387431082432e+00  0.0000000000000000e+00 1.8048872498649285e-01 1.0118253489251705e+00  0.0000000000000000e+00 1.8248154572722730e-01 1.0121862980601455e+00  0.0000000000000000e+00 1.8447968635429915e-01 1.0125045659850682e+00  0.0000000000000000e+00 1.8585836254204682e-01 1.0127323624148705e+00  0.0000000000000000e+00 1.8508922240848155e-01 1.0126173249819703e+00  0.0000000000000000e+00 1.8442109068879328e-01 1.0125329980220821e+00  0.0000000000000000e+00 1.8332772033244291e-01 1.0123793830038914e+00  0.0000000000000000e+00 1.8165084889669575e-01 1.0121262622976914e+00  0.0000000000000000e+00 1.7939102849211253e-01 1.0117274872788129e+00  0.0000000000000000e+00 1.7678422635542820e-01 1.0112070475678321e+00  0.0000000000000000e+00 1.7366279473620247e-01 1.0104813699284638e+00  0.0000000000000000e+00 1.7073484074567707e-01 1.0097471398285180e+00  0.0000000000000000e+00 1.6645727900662691e-01 1.0084522157983282e+00  0.0000000000000000e+00 1.6209065052304900e-01 1.0069158946303849e+00  0.0000000000000000e+00 1.5740185048263880e-01 1.0050535361307107e+00  0.0000000000000000e+00 1.5260003870150823e-01 1.0028459874999311e+00  0.0000000000000000e+00 1.4740862848508582e-01 1.0001132646956357e+00  0.0000000000000000e+00 1.4175735271302042e-01 9.9672788726251949e-01  0.0000000000000000e+00 1.3603273941195820e-01 9.9280782896367026e-01  0.0000000000000000e+00 1.3012637357096740e-01 9.8819849755105071e-01  0.0000000000000000e+00 1.2409692719585817e-01 9.8285029273905888e-01  0.0000000000000000e+00 1.1796039036189476e-01 9.7670189807037133e-01  0.0000000000000000e+00 1.1169603683420712e-01 9.6956451500990437e-01  0.0000000000000000e+00 1.0536478696003694e-01 9.6141243899032292e-01  0.0000000000000000e+00 9.9129666409865425e-02 9.5231546456467042e-01  0.0000000000000000e+00 9.2987863191227871e-02 9.4219030062815257e-01  0.0000000000000000e+00 8.6941177720125745e-02 9.3092371858113676e-01  0.0000000000000000e+00 8.1041457692276997e-02 9.1849399630270101e-01  0.0000000000000000e+00 7.5315231936797886e-02 9.0484079534890205e-01  0.0000000000000000e+00 6.9813576491762785e-02 8.8998941222458761e-01  0.0000000000000000e+00 6.4556593517314464e-02 8.7389375406737579e-01  0.0000000000000000e+00 5.9578332634712114e-02 8.5659457940460182e-01  0.0000000000000000e+00 5.4900805429864155e-02 8.3811321236780079e-01  0.0000000000000000e+00 5.0561318896623193e-02 8.1859564123685002e-01  0.0000000000000000e+00 4.6553488204228069e-02 7.9806985853646384e-01  0.0000000000000000e+00 4.2886429170570499e-02 7.7663838841990951e-01  0.0000000000000000e+00 3.9507597559829584e-02 7.5411658350104660e-01  0.0000000000000000e+00 3.6456738730962238e-02 7.3085450425659237e-01  0.0000000000000000e+00 3.3715335662102365e-02 7.0698022270663941e-01  0.0000000000000000e+00 3.1271566274270975e-02 6.8267646997918452e-01  0.0000000000000000e+00 2.9103113715290133e-02 6.5809165848504403e-01  0.0000000000000000e+00 2.7188438101863388e-02 6.3343615510462326e-01  0.0000000000000000e+00 2.5474398176034540e-02 6.0826023201237400e-01  0.0000000000000000e+00 2.3967127008774264e-02 5.8324818519555088e-01  0.0000000000000000e+00 2.2668280947262559e-02 5.5883713195573592e-01  0.0000000000000000e+00 2.1516520284945970e-02 5.3440619742364648e-01  0.0000000000000000e+00 2.0507237097868041e-02 5.1017339689466523e-01  0.0000000000000000e+00 1.9631951754462626e-02 4.8637566430556634e-01  0.0000000000000000e+00 1.8891497065724436e-02 4.6361317852192019e-01  0.0000000000000000e+00 1.8237665670734864e-02 4.4064559474598303e-01  0.0000000000000000e+00 1.7693826188545151e-02 4.1865508376833754e-01  0.0000000000000000e+00 1.7226818259218905e-02 3.9719642960100210e-01  0.0000000000000000e+00 1.6852547558200100e-02 3.7668433348820152e-01  0.0000000000000000e+00 1.6538155710560366e-02 3.5656729466564402e-01  0.0000000000000000e+00 1.6294817348853075e-02 3.3707100964767073e-01  0.0000000000000000e+00 1.6114712271162325e-02 3.1838862049846373e-01  0.0000000000000000e+00 1.5995157210207594e-02 3.0049075007973181e-01  0.0000000000000000e+00 1.5931442095956278e-02 2.8329296332161225e-01  0.0000000000000000e+00 1.5970419970885701e-02 2.5093638240344762e-01  0.0000000000000000e+00 1.6063420403426395e-02 2.3585422924034768e-01  0.0000000000000000e+00 1.6208051123634337e-02 2.2152270902064033e-01  0.0000000000000000e+00 1.6400551763824670e-02 2.0786553951170891e-01  0.0000000000000000e+00 1.6645180889805464e-02 1.9489585690987052e-01  0.0000000000000000e+00 1.6940965127870824e-02 1.8259605021398795e-01  0.0000000000000000e+00 1.7289447193851806e-02 1.7096290578459383e-01  0.0000000000000000e+00 1.7689313777396149e-02 1.5996561342938231e-01  0.0000000000000000e+00 1.8142025185235854e-02 1.4959839314758580e-01  0.0000000000000000e+00 1.8646626388431294e-02 1.3984101784679018e-01  0.0000000000000000e+00 1.9210617739062748e-02 1.3068252718004056e-01  0.0000000000000000e+00 1.9831454795997187e-02 1.2208683325547603e-01  0.0000000000000000e+00 2.0515032558733663e-02 1.1406162863653471e-01  0.0000000000000000e+00 2.1262547963399533e-02 1.0654872893894704e-01  0.0000000000000000e+00 2.2069931272383918e-02 9.9555479720848772e-02  0.0000000000000000e+00 2.2946915934512379e-02 9.3027869270692537e-02  0.0000000000000000e+00 2.3893570152134704e-02 8.6952463846577246e-02  0.0000000000000000e+00 2.4902055949717748e-02 8.1342227191695371e-02  0.0000000000000000e+00 2.5996963108799582e-02 7.6146232538135405e-02  0.0000000000000000e+00 2.7156843960923573e-02 7.1334657962561387e-02  0.0000000000000000e+00 2.8400139569437963e-02 6.6893509775876270e-02  0.0000000000000000e+00 2.9716974753302372e-02 6.2798926020085521e-02  0.0000000000000000e+00 3.1109643788923728e-02 5.9027719288599075e-02  0.0000000000000000e+00 3.2585681517907875e-02 5.5561121422948070e-02  0.0000000000000000e+00 3.4133758911561174e-02 5.2398349458534534e-02  0.0000000000000000e+00 3.5764191895674854e-02 4.9498479745556913e-02  0.0000000000000000e+00 3.7477759406866658e-02 4.6834482169990137e-02  0.0000000000000000e+00 3.9247514813350537e-02 4.4427079838689772e-02  0.0000000000000000e+00 4.1100701223618551e-02 4.2219325084015970e-02  0.0000000000000000e+00 4.3012358497031958e-02 4.0212817211274211e-02  0.0000000000000000e+00 4.4984134496342351e-02 3.8398709792682957e-02  0.0000000000000000e+00 4.7011455131680417e-02 3.6756189496461915e-02  0.0000000000000000e+00 4.9084807293345988e-02 3.5275409432936271e-02  0.0000000000000000e+00 5.1204664250045440e-02 3.3938247817347035e-02  0.0000000000000000e+00 5.3370508453445160e-02 3.2725240719281602e-02  0.0000000000000000e+00 5.5517993320722353e-02 3.1662120688958774e-02  0.0000000000000000e+00 5.7669640499543276e-02 3.0717432227540805e-02  0.0000000000000000e+00 5.9874642563347513e-02 2.9848515641454656e-02  0.0000000000000000e+00 6.2031896219315298e-02 2.9097774759391515e-02  0.0000000000000000e+00 6.4141012964450544e-02 2.8449271330249448e-02  0.0000000000000000e+00 6.6228854276299126e-02 2.7874296885851468e-02  0.0000000000000000e+00 6.8251304432853349e-02 2.7380831001475543e-02  0.0000000000000000e+00 7.0244257220145628e-02 2.6949123074590537e-02  0.0000000000000000e+00 7.2089526796590378e-02 2.6600906941872181e-02  0.0000000000000000e+00 7.3898641733048678e-02 2.6299693362053050e-02  0.0000000000000000e+00 7.5579924719593780e-02 2.6060295375659688e-02  0.0000000000000000e+00 7.7158539087714195e-02 2.5866846916885670e-02  0.0000000000000000e+00 7.8640016617897143e-02 2.5714154442651665e-02  0.0000000000000000e+00 7.9944887262580422e-02 2.5619561256634785e-02  0.0000000000000000e+00 8.1102559599662449e-02 2.5563414965231117e-02  0.0000000000000000e+00 8.2185335884942118e-02 2.5527899346445997e-02  0.0000000000000000e+00 8.3086897553611025e-02 2.5533173414413017e-02  0.0000000000000000e+00 8.3820320664947462e-02 2.5572553448777992e-02  0.0000000000000000e+00 8.4433418075818181e-02 2.5631439836977937e-02  0.0000000000000000e+00 8.4917530824862933e-02 2.5712468832604109e-02  0.0000000000000000e+00 8.5231423442888810e-02 2.5820512861376512e-02  0.0000000000000000e+00 6.8527332011201980e-02 2.7381693555205231e-02  0.0000000000000000e+00 2.3344301257571441e-02 5.7174712342733525e-01  0.0000000000000000e+00 5.3901721836970153e-02 3.7103122715850430e-02  0.0000000000000000e+00 1.5927652472043134e-02 2.7362698860846052e-01  0.0000000000000000e+00 8.4264678911019866e-02 2.6043389864875435e-02  0.0000000000000000e+00 1.2142642752804515e-01 9.7974505696717318e-01  0.0000000000000000e+00 3.5269303945234004e-02 5.5878168130867850e-02  0.0000000000000000e+00 2.0946368293874588e-02 1.1876175646707750e-01  0.0000000000000000e+00 1.8098581844579822e-01 1.0119332884486265e+00  0.0000000000000000e+00 3.6290575593045320e-02 7.2711027960349461e-01  0.0000000000000000e+00 4.9755358059152252e-02 3.4863710897093163e-02  0.0000000000000000e+00 5.1783707288141849e-02 8.2427491595041436e-01  0.0000000000000000e+00 6.0716016709531417e-02 8.5945762798834546e-01  0.0000000000000000e+00 3.8231327594015825e-02 4.5796107388308395e-02  0.0000000000000000e+00 2.0804129168582302e-02 5.1106375998075171e-01  0.0000000000000000e+00 6.2787043214468180e-02 3.3165234316283418e-02  0.0000000000000000e+00 8.8605582691119122e-02 9.3414040366846718e-01  0.0000000000000000e+00 1.3073908483180507e-01 9.8867977665415163e-01  0.0000000000000000e+00 7.1914153683549031e-02 3.0299347567870692e-02  0.0000000000000000e+00 2.7797907879800712e-02 6.9000543672753920e-02  0.0000000000000000e+00 1.6754424752719935e-02 3.5040382556960348e-01  0.0000000000000000e+00 2.0882464970386826e-02 1.1026023063680786e-01  0.0000000000000000e+00 7.6669363472609581e-02 2.9018650708357747e-02  0.0000000000000000e+00 1.6067283649289493e-01 1.0064051166811157e+00  0.0000000000000000e+00 1.6477728309300596e-02 2.3424150977294131e-01  0.0000000000000000e+00 1.7934675025694170e-02 1.5427775764552734e-01  0.0000000000000000e+00 8.1286293331883280e-02 2.7706938609125559e-02  0.0000000000000000e+00 7.8281124604198324e-02 2.5875756926629224e-02  0.0000000000000000e+00 1.7900505357500311e-02 4.2711288832247502e-01  0.0000000000000000e+00 1.5748563998136361e-01 1.0048283591821174e+00  0.0000000000000000e+00 2.8092044651653578e-02 7.4386008675069268e-02  0.0000000000000000e+00 4.5349166141667979e-02 4.3051256237694492e-02  0.0000000000000000e+00 1.7753073346466275e-01 1.0113413842184915e+00  0.0000000000000000e+00 1.7611922395690247e-02 1.7748256657547662e-01  0.0000000000000000e+00 1.6534398982877133e-02 2.0062827553351439e-01  0.0000000000000000e+00 8.3667629248041664e-02 2.6848886186254511e-02  0.0000000000000000e+00 8.6068951656537801e-02 9.2831194292630004e-01  0.0000000000000000e+00 3.2082439141010326e-02 6.9099110968350541e-01  0.0000000000000000e+00 8.2431111419176653e-02 2.5729670164154249e-02  0.0000000000000000e+00 6.0286083813128423e-02 2.9744550768882355e-02  0.0000000000000000e+00 1.6363787775653647e-02 3.4250733567658981e-01  0.0000000000000000e+00 1.7309710925640934e-01 1.0101904321773034e+00  0.0000000000000000e+00 2.4246336910618088e-02 9.2402214257713083e-02  0.0000000000000000e+00 6.6580516266835435e-02 3.1873633444785672e-02  0.0000000000000000e+00 3.1473658949169370e-02 6.4068381652455972e-02  0.0000000000000000e+00 1.8199022662752887e-01 1.0121334994170694e+00  0.0000000000000000e+00 1.4099321791806990e-01 9.9585462117561774e-01  0.0000000000000000e+00 1.9051298695897039e-02 1.4462104876111795e-01  0.0000000000000000e+00 2.7638696544503606e-02 6.3581737917120107e-01  0.0000000000000000e+00 7.3851635737357257e-02 2.6400351531154245e-02  0.0000000000000000e+00 4.9365143452158811e-02 3.9892440901034908e-02  0.0000000000000000e+00 3.3296893893668043e-02 5.4078392873136129e-02  0.0000000000000000e+00 1.0641349671852982e-01 9.6279645237623668e-01  0.0000000000000000e+00 2.4434292121149427e-02 8.3872224678019996e-02  0.0000000000000000e+00 1.9951474810897884e-02 4.9518232342766638e-01  0.0000000000000000e+00 4.0723634646110916e-02 4.7813584529982751e-02  0.0000000000