<?xml version="1.0"?>
<VTKFile type="UnstructuredGrid"  version="0.1"  >
<UnstructuredGrid>
<Piece  NumberOfPoints="4940" NumberOfCells="9650">
<Points>
<DataArray  type="Float64"  NumberOfComponents="3"  format="ascii">500 250 0  0 250 0  250 500 0  250 0 0  256.8885856082646 499.9050767557906 0  263.7719401218049 499.6203791065173 0  270.6448364229772 499.1461232471188 0  277.5020553257866 498.4826693209355 0  284.3383895508592 497.6305211460281 0  291.1486476865662 496.5903258312597 0  297.9276581259182 495.3628732847843 0  304.6702729675493 493.9490956196674 0  311.3713719748657 492.3500664368026 0  318.0258664141369 490.5670000199653 0  324.6287029687753 488.6012504015818 0  331.1748675330201 486.4543103455647 0  337.6593890460416 484.1278102064655 0  344.0773432429536 481.6235166997244 0  350.4238564271474 478.9433315480048 0  356.694109139292 476.0892900492477 0  362.88333985546 473.0635595140469 0  368.9868485575419 469.8684376402048 0  375.0000003153078 466.5063507640667 0  380.9182288257928 462.9798520074548 0  386.7370398729688 459.2916193419558 0  392.4520147244077 455.444453565817 0  398.0588135356345 451.4412761437442 0  403.5531785622926 447.285127045646 0  408.9309374414144 442.9791624087773 0  414.1880064015299 438.5266521049243 0  419.3203932989752 433.9309773069245 0  424.324200661095 429.1956279150535 0  429.1956286596235 424.3241998957182 0  433.9309780058756 419.3203925397119 0  438.5266527445345 414.1880056671062 0  442.9791630130591 408.9309367076756 0  447.2851276060475 403.5531778422888 0  451.4412766621026 398.0588128303826 0  455.4444540361634 392.4520140460735 0  459.2916197786263 386.7370392045948 0  462.9798524073514 380.9182281752347 0  466.5063511234856 374.9999996927758 0  469.8684379657123 368.9868479560565 0  473.0635598144817 362.8833392617846 0  476.0892903190255 356.6941085676214 0  478.9433317963513 350.4238558609745 0  481.6235169154735 344.0773427117675 0  484.12781039012 337.6593885555221 0  486.4543105028062 331.1748670749914 0  488.601250531677 324.6287025528375 0  490.5670001317469 318.0258660188321 0  492.3500665291326 311.3713716102628 0  493.949095695951 304.6702726271575 0  495.3628733416623 297.9276578347343 0  496.5903258712341 291.1486474470129 0  497.6305211749058 284.3383893426084 0  498.4826693388848 277.502055163614 0  499.1461232580606 270.6448362909296 0  499.6203791109319 263.7719400417897 0  499.9050767571306 256.8885855596534 0  499.9050767559877 243.1114143988867 0  499.6203791069493 236.2280598860241 0  499.1461232485393 229.3551635941651 0  498.4826693235677 222.4979446979962 0  497.6305211491849 215.6616104719064 0  496.5903258357701 208.8513523404629 0  495.3628732906988 202.0723419043604 0  493.9490956264813 195.3297270628552 0  492.3500664487791 188.6286280724281 0  490.5670000344809 181.9741336371959 0  488.6012504175981 175.3712970824318 0  486.4543103623226 168.8251325157939 0  484.1278102222298 162.3406109960628 0  481.6235167152198 155.9226567951971 0  478.9433315621651 149.5761436051346 0  476.0892900516498 143.3058908657982 0  473.063559513628 137.1166601437124 0  469.8684376406648 131.0131514433083 0  466.5063507675389 124.9999996907064 0  462.9798520124137 119.0817711822745 0  459.2916193464549 113.2629601339176 0  455.4444535642773 107.5479852733717 0  451.4412761528674 101.9411864767781 0  447.2851270583545 96.44682145403524 0  442.9791624165781 91.06906256805769 0  438.5266521117469 85.81199360630404 0  433.9309773156125 80.67960671046254 0  429.1956279150353 75.67579933888632 0  424.3241998888952 70.80437133373906 0  419.3203925223282 66.06902197812161 0  414.1880056411937 61.47334723289828 0  408.9309366751728 57.0208369601728 0  403.5531778009394 52.71487236176898 0  398.058812796452 48.55872331295853 0  392.4520140187753 44.55554594490843 0  386.7370391799677 40.70838020528396 0  380.9182281475119 37.02014757560744 0  374.9999996718656 33.49364886444181 0  368.9868479340393 30.13156202237255 0  362.8833392380029 26.93644017348339 0  356.6941085456942 23.91070967062674 0  350.4238558420009 21.0566681953261 0  344.0773426899492 18.37648307566465 0  337.6593885328982 15.87218960140942 0  331.1748670549786 13.54568949032341 0  324.6287025315056 11.39874946165088 0  318.0258660010876 9.432999863235466 0  311.3713716017894 7.649933468721599 0  304.6702726190621 6.050904302234756 0  297.9276578269805 4.637126656823085 0  291.148647441857 3.409674127905504 0  284.3383893425031 2.369478825079682 0  277.502055159398 1.517330660648639 0  270.6448362875833 0.853876741662134 0  263.7719400401456 0.3796208889774277 0  256.8885855592052 0.09492324285704967 0  243.1114143979462 0.09492324403817065 0  236.2280598850882 0.3796208931023841 0  229.3551635938215 0.8538767514891958 0  222.4979446968584 1.517330676558146 0  215.6616104703111 2.369478851036291 0  208.8513523382973 3.409674164591252 0  202.0723419066374 4.637126708856528 0  195.3297270659513 6.050904372824903 0  188.628628074828 7.649933550613184 0  181.9741336377093 9.432999965373938 0  175.3712970793675 11.39874958336037 0  168.8251325057572 13.54568964112298 0  162.340610986655 15.87218978129263 0  155.9226567874317 18.37648328793418 0  149.576143602509 21.05666843898663 0  143.3058908718157 23.91070994551046 0  137.1166601505524 26.93644048291054 0  131.0131514451933 30.13156235831508 0  124.9999996848412 33.49364923584736 0  119.0817711715717 37.0201479941652 0  113.2629601211624 40.70838066187849 0  107.5479852622251 44.55554644345162 0  101.9411864693332 48.55872385260452 0  96.44682143286516 52.71487295812284 0  91.06906254351222 57.02083760363669 0  85.81199358272519 61.4733479087879 0  80.67960667988106 66.06902271253972 0  75.67579930062769 70.80437212218331 0  70.80437129287643 75.67580015310926 0  66.06902193673014 80.67960752263491 0  61.47334718684866 85.81199441168215 0  57.02083692524275 91.0690633672404 0  52.71487232786438 96.44682224262129 0  48.55872328070024 101.941187247437 0  44.55554591578033 107.5479860232332 0  40.7083801742321 113.2629608675606 0  37.02014754791168 119.0817718975441 0  33.49364883372994 125.000000381329 0  30.13156199866361 131.0131521097709 0  26.9364401549829 137.1166607985551 0  23.91070965524918 143.3058914868915 0  21.05666818346614 149.576144185037 0  18.37648306853811 155.9226573275967 0  15.8721895918909 162.3406114925245 0  13.54568948170046 168.8251329701392 0  11.39874945301878 175.3712974960928 0  9.432999857087736 181.9741340206533 0  7.649933466342702 188.6286284076045 0  6.050904301250966 195.3297273853278 0  4.637126656808988 202.0723421730917 0  3.409674127767772 208.8513525589684 0  2.369478824521138 215.6616106615248 0  1.517330660909465 222.4979448382452 0  0.8538767414496533 229.355163714981 0  0.3796208887135322 236.2280599646376 0  0.09492324266324204 243.1114144478261 0  0.0949232442452228 256.8885856095658 0  0.3796208935834784 263.7719401236316 0  0.8538767530323526 270.6448364248016 0  1.517330679476544 277.5020553295092 0  2.369478854618649 284.3383895555228 0  3.409674170191892 291.1486476952655 0  4.6371267162381 297.9276581311522 0  6.050904381420935 304.6702729724059 0  7.649933562385399 311.3713719716595 0  9.43299997979841 318.0258664133013 0  11.3987495994252 324.6287029719946 0  13.54568965885832 331.174867545904 0  15.87218979367188 337.6593890464085 0  18.37648329843151 344.0773432384132 0  21.05666844777872 350.423856417535 0  23.91070995156048 356.6941091410045 0  26.93644048988043 362.8833398632205 0  30.13156235982007 368.9868485575877 0  33.49364924138357 375.0000003247478 0  37.0201480006036 380.9182288389023 0  40.70838066758398 386.7370398875706 0  44.55554644477201 392.4520147396792 0  48.55872386086904 398.0588135419111 0  52.71487295981296 403.5531785693063 0  57.02083760525949 408.9309374584583 0  61.47334790862246 414.1880064170849 0  66.06902271205095 419.320393319588 0  70.80437211216579 424.3242006890749 0  75.67580013809859 429.195628692521 0  80.6796075127923 433.930978054209 0  85.81199439754931 438.5266528008431 0  91.06906334717917 442.9791630582355 0  96.44682221438322 447.2851276501571 0  101.9411872243843 451.441276702356 0  107.5479859945825 455.4444540643537 0  113.2629608446994 459.2916198108319 0  119.0817718768376 462.9798524393601 0  125.0000003647644 466.5063511567065 0  131.0131521012763 469.8684379967393 0  137.1166607840049 473.0635598376539 0  143.3058914748804 476.0892903390826 0  149.5761441732679 478.9433318113714 0  155.9226573130112 481.6235169255377 0  162.3406114779862 484.1278104026658 0  168.8251329570439 486.4543105138039 0  175.3712974805475 488.601250542119 0  181.9741340135204 490.5670001408953 0  188.6286284005059 492.3500665318597 0  195.3297273788229 493.9490956972913 0  202.0723421640089 495.3628733414168 0  208.8513525529672 496.5903258712308 0  215.6616106544547 497.6305211744985 0  222.4979448327038 498.4826693384772 0  229.3551637102845 499.1461232581612 0  236.2280599621369 499.6203791111485 0  243.1114144470173 499.9050767573145 0  155.2373389820306 474.8197567317462 0  25.36256300907667 153.9152755065208 0  432.3709625126712 412.6214396304305 0  6.013151705810699 246.637913163471 0  246.6379131630491 493.986848294322 0  338.6995838441862 22.68244767887072 0  477.3175523131281 338.6995838660569 0  493.9868482700757 246.6379131399102 0  246.6201155078769 6.218451882810491 0  417.6179310263282 72.7156044707053 0  102.2232990934413 445.0100869616822 0  63.66330858966404 92.20354579482142 0  391.3105220491464 50.73522820883105 0  72.79295043967942 418.0702734974704 0  448.290574428537 108.25674339002 0  402.4604651193511 440.7462829841712 0  97.55317348421397 59.11376320116034 0  136.7376477664901 33.58246472647134 0  363.3288394375288 465.6947312928271 0  44.0678766556007 381.0860953771871 0  469.6905266180034 142.3890690100806 0  22.68244791668644 338.6995843487432 0  338.699584349159 477.317552078365 0  173.389488083762 18.6681884918202 0  483.4809734778481 179.7121987795732 0  13.50237455842738 306.4709525540879 0  305.9825168523021 487.24416992
[...]
<PointData  Vectors="f_12"> 
<DataArray  type="Float64"  Name="f_12"  NumberOfComponents="3" format="ascii">0.0000000000000000e+00 3.7960016550510156e-01 9.2779900315333519e-01  0.0000000000000000e+00 6.5402228685800556e-01 6.0161559558296640e-01  0.0000000000000000e+00 1.5294647798981277e-02 2.5561619756415244e-01  0.0000000000000000e+00 8.9691003721018459e-01 1.9294676694807600e-01  0.0000000000000000e+00 1.5298946680632194e-02 2.5325465324714930e-01  0.0000000000000000e+00 1.5302037087628994e-02 2.5182048923787581e-01  0.0000000000000000e+00 1.5303807870745209e-02 2.5103667911942823e-01  0.0000000000000000e+00 1.5303929086503602e-02 2.5105783812039834e-01  0.0000000000000000e+00 1.5302110996449007e-02 2.5179014834102387e-01  0.0000000000000000e+00 1.5298869476230048e-02 2.5324817918706621e-01  0.0000000000000000e+00 1.5294592915666379e-02 2.5544460994029083e-01  0.0000000000000000e+00 1.5290489919928743e-02 2.5837442331720401e-01  0.0000000000000000e+00 1.5287487089326809e-02 2.6207500813597961e-01  0.0000000000000000e+00 1.5287275120491923e-02 2.6660438892155297e-01  0.0000000000000000e+00 1.5291703653026010e-02 2.7210442344932834e-01  0.0000000000000000e+00 1.5302757795406872e-02 2.7810100821987105e-01  0.0000000000000000e+00 1.5324045990163106e-02 2.8531317222226121e-01  0.0000000000000000e+00 1.5356720239482202e-02 2.9299753810537515e-01  0.0000000000000000e+00 1.5403638556394152e-02 3.0141045173995135e-01  0.0000000000000000e+00 1.5465950284969760e-02 3.1040552792346288e-01  0.0000000000000000e+00 1.5545705428671024e-02 3.1987726704324898e-01  0.0000000000000000e+00 1.5647037660134488e-02 3.3002742996143392e-01  0.0000000000000000e+00 1.5771684025193293e-02 3.4080238001292024e-01  0.0000000000000000e+00 1.5922899224099851e-02 3.5225438456102653e-01  0.0000000000000000e+00 1.6109428983596845e-02 3.6481616571723724e-01  0.0000000000000000e+00 1.6346565665522759e-02 3.7895005889063993e-01  0.0000000000000000e+00 1.6645303805160473e-02 3.9494378853983036e-01  0.0000000000000000e+00 1.7016882361779617e-02 4.1259936806687236e-01  0.0000000000000000e+00 1.7478597220807308e-02 4.3205954507926414e-01  0.0000000000000000e+00 1.8044266903750241e-02 4.5327985250346975e-01  0.0000000000000000e+00 1.8713786321206016e-02 4.7534312328800482e-01  0.0000000000000000e+00 1.9495769349657271e-02 4.9819852010250504e-01  0.0000000000000000e+00 2.0407166240410592e-02 5.2174285883533045e-01  0.0000000000000000e+00 2.1483507015823990e-02 5.4633068297056553e-01  0.0000000000000000e+00 2.2805280720643382e-02 5.7297411850571434e-01  0.0000000000000000e+00 2.4447467953251548e-02 6.0185227734369451e-01  0.0000000000000000e+00 2.6502297596713027e-02 6.3298609530656802e-01  0.0000000000000000e+00 2.9074503752573318e-02 6.6614571488846996e-01  0.0000000000000000e+00 3.2222233861789108e-02 7.0013365737835942e-01  0.0000000000000000e+00 3.5941175223574158e-02 7.3352545077513542e-01  0.0000000000000000e+00 4.0319229129077740e-02 7.6608514850409737e-01  0.0000000000000000e+00 4.5607589953173100e-02 7.9854514240934205e-01  0.0000000000000000e+00 5.2096633662125989e-02 8.3105757298191774e-01  0.0000000000000000e+00 5.9985166570276895e-02 8.6297865348942127e-01  0.0000000000000000e+00 6.9438072238022230e-02 8.9341681437542608e-01  0.0000000000000000e+00 8.0322288110154405e-02 9.2106933737693719e-01  0.0000000000000000e+00 9.2436475060036993e-02 9.4510253099089703e-01  0.0000000000000000e+00 1.0573781558815118e-01 9.6560399420890553e-01  0.0000000000000000e+00 1.2075555625589522e-01 9.8300725764828567e-01  0.0000000000000000e+00 1.3751150187555347e-01 9.9712145665799157e-01  0.0000000000000000e+00 1.5598873700907220e-01 1.0075311609702315e+00  0.0000000000000000e+00 1.7564440952813964e-01 1.0139110062464145e+00  0.0000000000000000e+00 1.9599255365861820e-01 1.0164586647871907e+00  0.0000000000000000e+00 2.1699239694216277e-01 1.0154554215968583e+00  0.0000000000000000e+00 2.3882868979770847e-01 1.0111619753091146e+00  0.0000000000000000e+00 2.6169682353663987e-01 1.0036342203021011e+00  0.0000000000000000e+00 2.8551521183694489e-01 9.9289131583321044e-01  0.0000000000000000e+00 3.0957616098471163e-01 9.7946134691834541e-01  0.0000000000000000e+00 3.3321221444473870e-01 9.6393350024090974e-01  0.0000000000000000e+00 3.5598395312472447e-01 9.4726946217799401e-01  0.0000000000000000e+00 4.0331596149596866e-01 9.0672663087809335e-01  0.0000000000000000e+00 4.2689674392925997e-01 8.8421159191849674e-01  0.0000000000000000e+00 4.4946891514114934e-01 8.6126026449683890e-01  0.0000000000000000e+00 4.7136104502422604e-01 8.3774121978258598e-01  0.0000000000000000e+00 4.9264911329021033e-01 8.1383464456865540e-01  0.0000000000000000e+00 5.1382020791232286e-01 7.8901119161649169e-01  0.0000000000000000e+00 5.3460850626765721e-01 7.6370346174071246e-01  0.0000000000000000e+00 5.5454776850404741e-01 7.3856664091810786e-01  0.0000000000000000e+00 5.7342815494617849e-01 7.1402668429129301e-01  0.0000000000000000e+00 5.9142042621161406e-01 6.8999077854848068e-01  0.0000000000000000e+00 6.0897959737071850e-01 6.6592890131067350e-01  0.0000000000000000e+00 6.2611277528487586e-01 6.4190152861344307e-01  0.0000000000000000e+00 6.4267050821513316e-01 6.1817091913520217e-01  0.0000000000000000e+00 6.5820892283496701e-01 5.9544560083933895e-01  0.0000000000000000e+00 6.7274429460833796e-01 5.7379953400248385e-01  0.0000000000000000e+00 6.8656405819462396e-01 5.5287756329072613e-01  0.0000000000000000e+00 6.9999953471508736e-01 5.3222031729138508e-01  0.0000000000000000e+00 7.1304782116101528e-01 5.1186273468426113e-01  0.0000000000000000e+00 7.2545782480111753e-01 4.9223132619723337e-01  0.0000000000000000e+00 7.3701253068056538e-01 4.7371795791424620e-01  0.0000000000000000e+00 7.4777910862854269e-01 4.5626314766594611e-01  0.0000000000000000e+00 7.5788040888695962e-01 4.3970720476346220e-01  0.0000000000000000e+00 7.6770874337364059e-01 4.2343690532171196e-01  0.0000000000000000e+00 7.7720357388320915e-01 4.0756410351723449e-01  0.0000000000000000e+00 7.8624421365017561e-01 3.9230872210826501e-01  0.0000000000000000e+00 7.9461671410125545e-01 3.7805559923162890e-01  0.0000000000000000e+00 8.0227888246284229e-01 3.6490443574419329e-01  0.0000000000000000e+00 8.0939265517087489e-01 3.5260241402588283e-01  0.0000000000000000e+00 8.1617675914712895e-01 3.4078751448456585e-01  0.0000000000000000e+00 8.2277478349278044e-01 3.2921958486576236e-01  0.0000000000000000e+00 8.2914640547344209e-01 3.1797407244856585e-01  0.0000000000000000e+00 8.3516315267137786e-01 3.0728599328704942e-01  0.0000000000000000e+00 8.4071514176459328e-01 2.9736125676841113e-01  0.0000000000000000e+00 8.4571209952912962e-01 2.8837605009861239e-01  0.0000000000000000e+00 8.5020738379836880e-01 2.8024843969471924e-01  0.0000000000000000e+00 8.5445978114496268e-01 2.7252117554512373e-01  0.0000000000000000e+00 8.5852587892794152e-01 2.6509796013181991e-01  0.0000000000000000e+00 8.6237413795697337e-01 2.5803908360218425e-01  0.0000000000000000e+00 8.6614913592669418e-01 2.5108280205326622e-01  0.0000000000000000e+00 8.6977908417001304e-01 2.4436446064254061e-01  0.0000000000000000e+00 8.7303011824759802e-01 2.3831784099405706e-01  0.0000000000000000e+00 8.7599252795949989e-01 2.3278323301248915e-01  0.0000000000000000e+00 8.7862275562272718e-01 2.2784800039405703e-01  0.0000000000000000e+00 8.8097711019896541e-01 2.2341351831750395e-01  0.0000000000000000e+00 8.8307822009654324e-01 2.1944150494681128e-01  0.0000000000000000e+00 8.8498732912638678e-01 2.1582089042687563e-01  0.0000000000000000e+00 8.8672666713205139e-01 2.1251250562287624e-01  0.0000000000000000e+00 8.8831704954046653e-01 2.0947931824394272e-01  0.0000000000000000e+00 8.8980428204858530e-01 2.0663597679080370e-01  0.0000000000000000e+00 8.9118849504702791e-01 2.0398358367684308e-01  0.0000000000000000e+00 8.9243371325802223e-01 2.0159230592914898e-01  0.0000000000000000e+00 8.9353172142147996e-01 1.9947875632777856e-01  0.0000000000000000e+00 8.9447387058510452e-01 1.9766128893237456e-01  0.0000000000000000e+00 8.9531160884355321e-01 1.9604280867539231e-01  0.0000000000000000e+00 8.9598751464481663e-01 1.9473492815685622e-01  0.0000000000000000e+00 8.9653149445261304e-01 1.9368133143524582e-01  0.0000000000000000e+00 8.9707952885548459e-01 1.9261648234760936e-01  0.0000000000000000e+00 8.9745802633665916e-01 1.9188562381961913e-01  0.0000000000000000e+00 8.9728331461651911e-01 1.9222193309121274e-01  0.0000000000000000e+00 8.9713818321485983e-01 1.9250361216420148e-01  0.0000000000000000e+00 8.9688380249743727e-01 1.9299744980472489e-01  0.0000000000000000e+00 8.9647243107132946e-01 1.9379493113584095e-01  0.0000000000000000e+00 8.9590732741103918e-01 1.9488897132039554e-01  0.0000000000000000e+00 8.9525155558459080e-01 1.9615769613089440e-01  0.0000000000000000e+00 8.9446006336459549e-01 1.9768650414237984e-01  0.0000000000000000e+00 8.9371404975844426e-01 1.9912778039099105e-01  0.0000000000000000e+00 8.9261164214362365e-01 2.0124918531418440e-01  0.0000000000000000e+00 8.9147959895438722e-01 2.0342389607783862e-01  0.0000000000000000e+00 8.9026597207195524e-01 2.0575127199036891e-01  0.0000000000000000e+00 8.8902680429645864e-01 2.0812366759634457e-01  0.0000000000000000e+00 8.8767413915198978e-01 2.1070725557642314e-01  0.0000000000000000e+00 8.8617159945563495e-01 2.1356972795225632e-01  0.0000000000000000e+00 8.8462094877411668e-01 2.1651725381186038e-01  0.0000000000000000e+00 8.8297460822002893e-01 2.1963909476628876e-01  0.0000000000000000e+00 8.8120454965171324e-01 2.2298625761308072e-01  0.0000000000000000e+00 8.7926943509800426e-01 2.2663448858918739e-01  0.0000000000000000e+00 8.7711620980346516e-01 2.3067991359840406e-01  0.0000000000000000e+00 8.7474153636507013e-01 2.3512605178308907e-01  0.0000000000000000e+00 8.7218013828101937e-01 2.3990439155795634e-01  0.0000000000000000e+00 8.6942735783795977e-01 2.4502037702820129e-01  0.0000000000000000e+00 8.6650127775301922e-01 2.5043762310168755e-01  0.0000000000000000e+00 8.6345752723761937e-01 2.5605126475834583e-01  0.0000000000000000e+00 8.6033707836592133e-01 2.6178472743839598e-01  0.0000000000000000e+00 8.5717761402486825e-01 2.6756852342628140e-01  0.0000000000000000e+00 8.5396823753484785e-01 2.7342216942618019e-01  0.0000000000000000e+00 8.5067314541050254e-01 2.7940992422140520e-01  0.0000000000000000e+00 8.4722215292122161e-01 2.8565688190802557e-01  0.0000000000000000e+00 8.4355061169617940e-01 2.9227613661674740e-01  0.0000000000000000e+00 8.3956292855100279e-01 2.9943393882672842e-01  0.0000000000000000e+00 8.3522291965863271e-01 3.0718728506169396e-01  0.0000000000000000e+00 8.3052621730125264e-01 3.1553695169159968e-01  0.0000000000000000e+00 8.2560838751440901e-01 3.2423519850064675e-01  0.0000000000000000e+00 8.2057218789201258e-01 3.3309750842871244e-01  0.0000000000000000e+00 8.1550169956704066e-01 3.4197482948928981e-01  0.0000000000000000e+00 8.1038689634837269e-01 3.5088381327750318e-01  0.0000000000000000e+00 8.0515565300441305e-01 3.5994887801980535e-01  0.0000000000000000e+00 7.9952461782938333e-01 3.6965112386847621e-01  0.0000000000000000e+00 7.9348148687091158e-01 3.8000312791092200e-01  0.0000000000000000e+00 7.8702255677973476e-01 3.9099725649256856e-01  0.0000000000000000e+00 7.8000705962231875e-01 4.0285577818238133e-01  0.0000000000000000e+00 7.7258634855805797e-01 4.1530939731305722e-01  0.0000000000000000e+00 7.6496617590620763e-01 4.2799995810935226e-01  0.0000000000000000e+00 7.5742090646477422e-01 4.4047213288802800e-01  0.0000000000000000e+00 7.4944425585010410e-01 4.5355192201278804e-01  0.0000000000000000e+00 7.4119427196068832e-01 4.6696765051282768e-01  0.0000000000000000e+00 7.3227046443825972e-01 4.8134785916895867e-01  0.0000000000000000e+00 7.2265040983294315e-01 4.9670191800249797e-01  0.0000000000000000e+00 7.1224183948073927e-01 5.1313244176431283e-01  0.0000000000000000e+00 7.0132375074048436e-01 5.3017258959493063e-01  0.0000000000000000e+00 6.9016438066866681e-01 5.4737690637717473e-01  0.0000000000000000e+00 6.7877540528654179e-01 5.6471375376862631e-01  0.0000000000000000e+00 6.6685804022524564e-01 5.8261388384378376e-01  0.0000000000000000e+00 6.4010534807013386e-01 6.2188360538070619e-01  0.0000000000000000e+00 6.2528173362539075e-01 6.4308335245441128e-01  0.0000000000000000e+00 6.0989268169800737e-01 6.6466892531217669e-01  0.0000000000000000e+00 5.9414274883131835e-01 6.8629939827951247e-01  0.0000000000000000e+00 5.7786112825701152e-01 7.0816661978828799e-01  0.0000000000000000e+00 5.6057447658234127e-01 7.3081438074999017e-01  0.0000000000000000e+00 5.4199779407063142e-01 7.5448638779857324e-01  0.0000000000000000e+00 5.2226475232361802e-01 7.7884567152621453e-01  0.0000000000000000e+00 5.0183163840692635e-01 8.0319235422703961e-01  0.0000000000000000e+00 4.8097014583679165e-01 8.2708677337456082e-01  0.0000000000000000e+00 4.5951702568514285e-01 8.5062015695967075e-01  0.0000000000000000e+00 4.3706168995727296e-01 8.7403634438582634e-01  0.0000000000000000e+00 4.1346758575102321e-01 8.9724006643028975e-01  0.0000000000000000e+00 3.8901679119365123e-01 9.1966598735697114e-01  0.0000000000000000e+00 3.6439972869611020e-01 9.4045744078260407e-01  0.0000000000000000e+00 3.3964543781988621e-01 9.5939168800745145e-01  0.0000000000000000e+00 3.1444125913405591e-01 9.7646805483363097e-01  0.0000000000000000e+00 2.8878575809322699e-01 9.9122881194675172e-01  0.0000000000000000e+00 2.6287986733103658e-01 1.0032213955946168e+00  0.0000000000000000e+00 2.3755080408421214e-01 1.0115449677911261e+00  0.0000000000000000e+00 2.1311030571067030e-01 1.0159453511445866e+00  0.0000000000000000e+00 1.8949232913519989e-01 1.0161254270999818e+00  0.0000000000000000e+00 1.6656986581251015e-01 1.0115781712698793e+00  0.0000000000000000e+00 1.4469852105948511e-01 1.0018397501269969e+00  0.0000000000000000e+00 1.2461632643896654e-01 9.8680694068602215e-01  0.0000000000000000e+00 1.0670056739010050e-01 9.6691889569604639e-01  0.0000000000000000e+00 9.0739388273796462e-02 9.4222808030776428e-01  0.0000000000000000e+00 7.6664057229172494e-02 9.1261941655309575e-01  0.0000000000000000e+00 6.4391748371715379e-02 8.7820379590317788e-01  0.0000000000000000e+00 5.4208733798160602e-02 8.4045503241365882e-01  0.0000000000000000e+00 4.6035062131907292e-02 8.0105936183140003e-01  0.0000000000000000e+00 3.9545816881856155e-02 7.6090917703160876e-01  0.0000000000000000e+00 3.4355126897625377e-02 7.2014569268657425e-01  0.0000000000000000e+00 3.0180366447503680e-02 6.7887872798203241e-01  0.0000000000000000e+00 2.6866601011135464e-02 6.3808693270965067e-01  0.0000000000000000e+00 2.4313887285147544e-02 5.9963497397571153e-01  0.0000000000000000e+00 2.2357449584112194e-02 5.6432853426545415e-01  0.0000000000000000e+00 2.0831436715750228e-02 5.3172206485590712e-01  0.0000000000000000e+00 1.9619888069479900e-02 5.0147755996530541e-01  0.0000000000000000e+00 1.8640510371868046e-02 4.7294439361555740e-01  0.0000000000000000e+00 1.7846440642184287e-02 4.4593587563458476e-01  0.0000000000000000e+00 1.7213621409255777e-02 4.2102084517343191e-01  0.0000000000000000e+00 1.6724755492574163e-02 3.9858910306039547e-01  0.0000000000000000e+00 1.6350817169274254e-02 3.7905766300161498e-01  0.0000000000000000e+00 1.6069742080479482e-02 3.6195473786367133e-01  0.0000000000000000e+00 1.5853482888878646e-02 3.4694084036518663e-01  0.0000000000000000e+00 1.5687646919867078e-02 3.3352498561103289e-01  0.0000000000000000e+00 1.5559609652662598e-02 3.2126755988104444e-01  0.0000000000000000e+00 1.5465276527566936e-02 3.1003711767691094e-01  0.0000000000000000e+00 1.5394341499028439e-02 2.9968572147471506e-01  0.0000000000000000e+00 1.5345123128742470e-02 2.9015518820691788e-01  0.0000000000000000e+00 1.5313781757827872e-02 2.8172755720193765e-01  0.0000000000000000e+00 1.5297188812329450e-02 2.7443076355218160e-01  0.0000000000000000e+00 1.5289126887257995e-02 2.6820115868951894e-01  0.0000000000000000e+00 1.5288345304279883e-02 2.6303494107185882e-01  0.0000000000000000e+00 1.5290533521577474e-02 2.5892548258199066e-01  0.0000000000000000e+00 1.6981696310957785e-02 4.1072356614115912e-01  0.0000000000000000e+00 7.9052140592109865e-01 3.8504837178964063e-01  0.0000000000000000e+00 2.2291968788156435e-02 5.6312041756503628e-01  0.0000000000000000e+00 6.5958662205145591e-01 5.9341724032881726e-01  0.0000000000000000e+00 1.5291232111346397e-02 2.5858920242641753e-01  0.0000000000000000e+00 8.7906312166817302e-01 2.2701293812366680e-01  0.0000000000000000e+00 9.9544779489965249e-02 9.5675820870057504e-01  0.0000000000000000e+00 3.9175815088117144e-01 9.1734220504931874e-01  0.0000000000000000e+00 8.9617171509439930e-01 1.9436477551509748e-01  0.0000000000000000e+00 8.1900536821892667e-01 3.3583596781170699e-01  0.0000000000000000e+00 3.2427793957970914e-02 7.0217254310807542e-01  0.0000000000000000e+00 8.4460165642726626e-01 2.9038006659519339e-01  0.0000000000000000e+00 8.4791419244059996e-01 2.8439688277819408e-01  0.0000000000000000e+00 8.3265654990495291e-02 9.2760397894767932e-01  0.0000000000000000e+00 7.6257970918460027e-01 4.3194789466739275e-01  0.0000000000000000e+00 1.7261797786170648e-02 4.2323692770494936e-01  0.0000000000000000e+00 8.6733390432063129e-01 2.4889301046783335e-01  0.0000000000000000e+00 8.8310332332938846e-01 2.1938793775739995e-01  0.0000000000000000e+00 1.5614678491360605e-02 3.2691791334536935e-01  0.0000000000000000e+00 2.2369183623437741e-01 1.0144717532289065e+00  0.0000000000000000e+00 6.9349811219793855e-01 5.4225360446196902e-01  0.0000000000000000e+00 4.0098273810148255e-01 9.0895436164685695e-01  0.0000000000000000e+00 1.5345568548339850e-02 2.9045570816838900e-01  0.0000000000000000e+00 8.9112235140637752e-01 2.0410066870609136e-01  0.0000000000000000e+00 6.0216576045150794e-01 6.7533699175362016e-01  0.0000000000000000e+00 5.1111011844404852e-01 7.9225170067969208e-01  0.0000000000000000e+00 1.5288497263848523e-02 2.6134588564468947e-01  0.0000000000000000e+00 1.5518850739871066e-02 3.1669543517693238e-01  0.0000000000000000e+00 7.4447365488394057e-01 4.6164571600952525e-01  0.0000000000000000e+00 8.8974634957167376e-01 2.0673870022354957e-01  0.0000000000000000e+00 2.0711156294842437e-01 1.0163575972190630e+00  0.0000000000000000e+00 3.7508465494330914e-02 7.4592047105300441e-01  0.0000000000000000e+00 8.9542674617319906e-01 1.9580908722373674e-01  0.0000000000000000e+00 5.2592075926588955e-01 7.7438605113435888e-01  0.0000000000000000e+00 5.8524158985649488e-01 6.9831728392880887e-01  0.0000000000000000e+00 1.5300584494847929e-02 2.5270605167490123e-01  0.0000000000000000e+00 8.6353966114253711e-01 2.5589056512228481e-01  0.0000000000000000e+00 8.1726484563440105e-01 3.3889065915989652e-01  0.0000000000000000e+00 1.5307576662512269e-02 2.7922860879064482e-01  0.0000000000000000e+00 2.0274571996137723e-02 5.1852348840798146e-01  0.0000000000000000e+00 7.0452879622933473e-01 5.2519296422728390e-01  0.0000000000000000e+00 8.9401910862170941e-01 1.9852771464841917e-01  0.0000000000000000e+00 2.9553168830022380e-01 9.8757397322260698e-01  0.0000000000000000e+00 1.6263417393658504e-02 3.7416757309897569e-01  0.0000000000000000e+00 1.4730200087875456e-01 1.0032594763523750e+00  0.0000000000000000e+00 8.9650389924565133e-01 1.9372326120504674e-01  0.0000000000000000e+00 8.8515397800995554e-01 2.1549731202275738e-01  0.0000000000000000e+00 4.6108539200376947e-01 8.4896343159755860e-01  0.0000000000000000e+00 7.9834114900166087e-01 3.7167353497375716e-01  0.0000000000000000e+00 1.5970608182687421e-02 3.5529673101833059e-01  0.0000000000000000e+00 2.7959716714989535e-02 6.5263629666259271e-01  0.0000000000000000e+00 1.3351111702595372e-01 9.9435837022194395e-01  0.0000000000000000e+00 8.7510542505951439e-01 2.3443856216109502e-01  0.0000000000000000e+00 2.9987088607189949e-01 9.8523609794436218e-01  0.0000000000000000e+00 7.6786404918787954e-01 4.2318211672761202e-01  0.0000000000000000e+00 5.6282341878151357e-02 8.4883430378641089e-01  0.0000000000