<?xml version="1.0"?>
<VTKFile type="UnstructuredGrid"  version="0.1"  >
<UnstructuredGrid>
<Piece  NumberOfPoints="4940" NumberOfCells="9650">
<Points>
<DataArray  type="Float64"  NumberOfComponents="3"  format="ascii">500 250 0  0 250 0  250 500 0  250 0 0  256.8885856082646 499.9050767557906 0  263.7719401218049 499.6203791065173 0  270.6448364229772 499.1461232471188 0  277.5020553257866 498.4826693209355 0  284.3383895508592 497.6305211460281 0  291.1486476865662 496.5903258312597 0  297.9276581259182 495.3628732847843 0  304.6702729675493 493.9490956196674 0  311.3713719748657 492.3500664368026 0  318.0258664141369 490.5670000199653 0  324.6287029687753 488.6012504015818 0  331.1748675330201 486.4543103455647 0  337.6593890460416 484.1278102064655 0  344.0773432429536 481.6235166997244 0  350.4238564271474 478.9433315480048 0  356.694109139292 476.0892900492477 0  362.88333985546 473.0635595140469 0  368.9868485575419 469.8684376402048 0  375.0000003153078 466.5063507640667 0  380.9182288257928 462.9798520074548 0  386.7370398729688 459.2916193419558 0  392.4520147244077 455.444453565817 0  398.0588135356345 451.4412761437442 0  403.5531785622926 447.285127045646 0  408.9309374414144 442.9791624087773 0  414.1880064015299 438.5266521049243 0  419.3203932989752 433.9309773069245 0  424.324200661095 429.1956279150535 0  429.1956286596235 424.3241998957182 0  433.9309780058756 419.3203925397119 0  438.5266527445345 414.1880056671062 0  442.9791630130591 408.9309367076756 0  447.2851276060475 403.5531778422888 0  451.4412766621026 398.0588128303826 0  455.4444540361634 392.4520140460735 0  459.2916197786263 386.7370392045948 0  462.9798524073514 380.9182281752347 0  466.5063511234856 374.9999996927758 0  469.8684379657123 368.9868479560565 0  473.0635598144817 362.8833392617846 0  476.0892903190255 356.6941085676214 0  478.9433317963513 350.4238558609745 0  481.6235169154735 344.0773427117675 0  484.12781039012 337.6593885555221 0  486.4543105028062 331.1748670749914 0  488.601250531677 324.6287025528375 0  490.5670001317469 318.0258660188321 0  492.3500665291326 311.3713716102628 0  493.949095695951 304.6702726271575 0  495.3628733416623 297.9276578347343 0  496.5903258712341 291.1486474470129 0  497.6305211749058 284.3383893426084 0  498.4826693388848 277.502055163614 0  499.1461232580606 270.6448362909296 0  499.6203791109319 263.7719400417897 0  499.9050767571306 256.8885855596534 0  499.9050767559877 243.1114143988867 0  499.6203791069493 236.2280598860241 0  499.1461232485393 229.3551635941651 0  498.4826693235677 222.4979446979962 0  497.6305211491849 215.6616104719064 0  496.5903258357701 208.8513523404629 0  495.3628732906988 202.0723419043604 0  493.9490956264813 195.3297270628552 0  492.3500664487791 188.6286280724281 0  490.5670000344809 181.9741336371959 0  488.6012504175981 175.3712970824318 0  486.4543103623226 168.8251325157939 0  484.1278102222298 162.3406109960628 0  481.6235167152198 155.9226567951971 0  478.9433315621651 149.5761436051346 0  476.0892900516498 143.3058908657982 0  473.063559513628 137.1166601437124 0  469.8684376406648 131.0131514433083 0  466.5063507675389 124.9999996907064 0  462.9798520124137 119.0817711822745 0  459.2916193464549 113.2629601339176 0  455.4444535642773 107.5479852733717 0  451.4412761528674 101.9411864767781 0  447.2851270583545 96.44682145403524 0  442.9791624165781 91.06906256805769 0  438.5266521117469 85.81199360630404 0  433.9309773156125 80.67960671046254 0  429.1956279150353 75.67579933888632 0  424.3241998888952 70.80437133373906 0  419.3203925223282 66.06902197812161 0  414.1880056411937 61.47334723289828 0  408.9309366751728 57.0208369601728 0  403.5531778009394 52.71487236176898 0  398.058812796452 48.55872331295853 0  392.4520140187753 44.55554594490843 0  386.7370391799677 40.70838020528396 0  380.9182281475119 37.02014757560744 0  374.9999996718656 33.49364886444181 0  368.9868479340393 30.13156202237255 0  362.8833392380029 26.93644017348339 0  356.6941085456942 23.91070967062674 0  350.4238558420009 21.0566681953261 0  344.0773426899492 18.37648307566465 0  337.6593885328982 15.87218960140942 0  331.1748670549786 13.54568949032341 0  324.6287025315056 11.39874946165088 0  318.0258660010876 9.432999863235466 0  311.3713716017894 7.649933468721599 0  304.6702726190621 6.050904302234756 0  297.9276578269805 4.637126656823085 0  291.148647441857 3.409674127905504 0  284.3383893425031 2.369478825079682 0  277.502055159398 1.517330660648639 0  270.6448362875833 0.853876741662134 0  263.7719400401456 0.3796208889774277 0  256.8885855592052 0.09492324285704967 0  243.1114143979462 0.09492324403817065 0  236.2280598850882 0.3796208931023841 0  229.3551635938215 0.8538767514891958 0  222.4979446968584 1.517330676558146 0  215.6616104703111 2.369478851036291 0  208.8513523382973 3.409674164591252 0  202.0723419066374 4.637126708856528 0  195.3297270659513 6.050904372824903 0  188.628628074828 7.649933550613184 0  181.9741336377093 9.432999965373938 0  175.3712970793675 11.39874958336037 0  168.8251325057572 13.54568964112298 0  162.340610986655 15.87218978129263 0  155.9226567874317 18.37648328793418 0  149.576143602509 21.05666843898663 0  143.3058908718157 23.91070994551046 0  137.1166601505524 26.93644048291054 0  131.0131514451933 30.13156235831508 0  124.9999996848412 33.49364923584736 0  119.0817711715717 37.0201479941652 0  113.2629601211624 40.70838066187849 0  107.5479852622251 44.55554644345162 0  101.9411864693332 48.55872385260452 0  96.44682143286516 52.71487295812284 0  91.06906254351222 57.02083760363669 0  85.81199358272519 61.4733479087879 0  80.67960667988106 66.06902271253972 0  75.67579930062769 70.80437212218331 0  70.80437129287643 75.67580015310926 0  66.06902193673014 80.67960752263491 0  61.47334718684866 85.81199441168215 0  57.02083692524275 91.0690633672404 0  52.71487232786438 96.44682224262129 0  48.55872328070024 101.941187247437 0  44.55554591578033 107.5479860232332 0  40.7083801742321 113.2629608675606 0  37.02014754791168 119.0817718975441 0  33.49364883372994 125.000000381329 0  30.13156199866361 131.0131521097709 0  26.9364401549829 137.1166607985551 0  23.91070965524918 143.3058914868915 0  21.05666818346614 149.576144185037 0  18.37648306853811 155.9226573275967 0  15.8721895918909 162.3406114925245 0  13.54568948170046 168.8251329701392 0  11.39874945301878 175.3712974960928 0  9.432999857087736 181.9741340206533 0  7.649933466342702 188.6286284076045 0  6.050904301250966 195.3297273853278 0  4.637126656808988 202.0723421730917 0  3.409674127767772 208.8513525589684 0  2.369478824521138 215.6616106615248 0  1.517330660909465 222.4979448382452 0  0.8538767414496533 229.355163714981 0  0.3796208887135322 236.2280599646376 0  0.09492324266324204 243.1114144478261 0  0.0949232442452228 256.8885856095658 0  0.3796208935834784 263.7719401236316 0  0.8538767530323526 270.6448364248016 0  1.517330679476544 277.5020553295092 0  2.369478854618649 284.3383895555228 0  3.409674170191892 291.1486476952655 0  4.6371267162381 297.9276581311522 0  6.050904381420935 304.6702729724059 0  7.649933562385399 311.3713719716595 0  9.43299997979841 318.0258664133013 0  11.3987495994252 324.6287029719946 0  13.54568965885832 331.174867545904 0  15.87218979367188 337.6593890464085 0  18.37648329843151 344.0773432384132 0  21.05666844777872 350.423856417535 0  23.91070995156048 356.6941091410045 0  26.93644048988043 362.8833398632205 0  30.13156235982007 368.9868485575877 0  33.49364924138357 375.0000003247478 0  37.0201480006036 380.9182288389023 0  40.70838066758398 386.7370398875706 0  44.55554644477201 392.4520147396792 0  48.55872386086904 398.0588135419111 0  52.71487295981296 403.5531785693063 0  57.02083760525949 408.9309374584583 0  61.47334790862246 414.1880064170849 0  66.06902271205095 419.320393319588 0  70.80437211216579 424.3242006890749 0  75.67580013809859 429.195628692521 0  80.6796075127923 433.930978054209 0  85.81199439754931 438.5266528008431 0  91.06906334717917 442.9791630582355 0  96.44682221438322 447.2851276501571 0  101.9411872243843 451.441276702356 0  107.5479859945825 455.4444540643537 0  113.2629608446994 459.2916198108319 0  119.0817718768376 462.9798524393601 0  125.0000003647644 466.5063511567065 0  131.0131521012763 469.8684379967393 0  137.1166607840049 473.0635598376539 0  143.3058914748804 476.0892903390826 0  149.5761441732679 478.9433318113714 0  155.9226573130112 481.6235169255377 0  162.3406114779862 484.1278104026658 0  168.8251329570439 486.4543105138039 0  175.3712974805475 488.601250542119 0  181.9741340135204 490.5670001408953 0  188.6286284005059 492.3500665318597 0  195.3297273788229 493.9490956972913 0  202.0723421640089 495.3628733414168 0  208.8513525529672 496.5903258712308 0  215.6616106544547 497.6305211744985 0  222.4979448327038 498.4826693384772 0  229.3551637102845 499.1461232581612 0  236.2280599621369 499.6203791111485 0  243.1114144470173 499.9050767573145 0  155.2373389820306 474.8197567317462 0  25.36256300907667 153.9152755065208 0  432.3709625126712 412.6214396304305 0  6.013151705810699 246.637913163471 0  246.6379131630491 493.986848294322 0  338.6995838441862 22.68244767887072 0  477.3175523131281 338.6995838660569 0  493.9868482700757 246.6379131399102 0  246.6201155078769 6.218451882810491 0  417.6179310263282 72.7156044707053 0  102.2232990934413 445.0100869616822 0  63.66330858966404 92.20354579482142 0  391.3105220491464 50.73522820883105 0  72.79295043967942 418.0702734974704 0  448.290574428537 108.25674339002 0  402.4604651193511 440.7462829841712 0  97.55317348421397 59.11376320116034 0  136.7376477664901 33.58246472647134 0  363.3288394375288 465.6947312928271 0  44.0678766556007 381.0860953771871 0  469.6905266180034 142.3890690100806 0  22.68244791668644 338.6995843487432 0  338.699584349159 477.317552078365 0  173.389488083762 18.6681884918202 0  483.4809734778481 179.7121987795732 0  13.50237455842738 306.4709525540879 0  305.9825168523021 487.24416992
[...]
<PointData  Vectors="f_12"> 
<DataArray  type="Float64"  Name="f_12"  NumberOfComponents="3" format="ascii">0.0000000000000000e+00 8.3322849253965692e-01 1.8681158367267726e-02  0.0000000000000000e+00 6.4214817362368370e-01 1.1015006619211917e-02  0.0000000000000000e+00 9.4163510783620452e-01 9.5688486779063733e-02  0.0000000000000000e+00 2.3815682505133348e-01 7.7838897663968266e-03  0.0000000000000000e+00 9.4143939815243760e-01 9.6254788967331362e-02  0.0000000000000000e+00 9.4132749905660551e-01 9.6574251589941235e-02  0.0000000000000000e+00 9.4125788825034962e-01 9.6773928899442155e-02  0.0000000000000000e+00 9.4126167940802530e-01 9.6760761544737922e-02  0.0000000000000000e+00 9.4132583811190351e-01 9.6576453054355069e-02  0.0000000000000000e+00 9.4145330277384853e-01 9.6212347066194914e-02  0.0000000000000000e+00 9.4163846254526018e-01 9.5680243456241418e-02  0.0000000000000000e+00 9.4187190227508066e-01 9.5002999876604405e-02  0.0000000000000000e+00 9.4215328465046344e-01 9.4177691845948708e-02  0.0000000000000000e+00 9.4248215710056271e-01 9.3199281906123616e-02  0.0000000000000000e+00 9.4287529286753147e-01 9.2007375384490706e-02  0.0000000000000000e+00 9.4325702650122856e-01 9.0835549428969140e-02  0.0000000000000000e+00 9.4372111906640133e-01 8.9363208457931706e-02  0.0000000000000000e+00 9.4416128339974092e-01 8.7923340935152722e-02  0.0000000000000000e+00 9.4461908587676291e-01 8.6372762792694013e-02  0.0000000000000000e+00 9.4508172653929112e-01 8.4748537677137123e-02  0.0000000000000000e+00 9.4552960877201386e-01 8.3096201041121781e-02  0.0000000000000000e+00 9.4596564543185568e-01 8.1368732165731344e-02  0.0000000000000000e+00 9.4638200722985355e-01 7.9600381386326899e-02  0.0000000000000000e+00 9.4676605029234362e-01 7.7838933575624880e-02  0.0000000000000000e+00 9.4712741709897774e-01 7.6015622727729937e-02  0.0000000000000000e+00 9.4746249490708068e-01 7.4101572932434218e-02  0.0000000000000000e+00 9.4776754191822177e-01 7.2086110578857818e-02  0.0000000000000000e+00 9.4801579256863822e-01 7.0091110365349665e-02  0.0000000000000000e+00 9.4820263648490422e-01 6.8077220111023698e-02  0.0000000000000000e+00 9.4831952653412976e-01 6.6006922495720474e-02  0.0000000000000000e+00 9.4834688180432292e-01 6.4011120828200277e-02  0.0000000000000000e+00 9.4827569169006243e-01 6.2040064068540415e-02  0.0000000000000000e+00 9.4810348663719612e-01 6.0088728967075684e-02  0.0000000000000000e+00 9.4782523502457816e-01 5.8158283113775328e-02  0.0000000000000000e+00 9.4741358211383231e-01 5.6173287894104258e-02  0.0000000000000000e+00 9.4686726091949569e-01 5.4183525732177440e-02  0.0000000000000000e+00 9.4618181157619363e-01 5.2222485496910047e-02  0.0000000000000000e+00 9.4531737852379605e-01 5.0280054317357159e-02  0.0000000000000000e+00 9.4425844287014027e-01 4.8389758822681761e-02  0.0000000000000000e+00 9.4302442677493670e-01 4.6586790210830592e-02  0.0000000000000000e+00 9.4159733062500428e-01 4.4843036672955916e-02  0.0000000000000000e+00 9.3990802910163507e-01 4.3086335262309747e-02  0.0000000000000000e+00 9.3793120192799528e-01 4.1317264920742489e-02  0.0000000000000000e+00 9.3569055213773811e-01 3.9608668707067647e-02  0.0000000000000000e+00 9.3315577627314394e-01 3.7964190759728816e-02  0.0000000000000000e+00 9.3032567779977315e-01 3.6387759322803859e-02  0.0000000000000000e+00 9.2717555397418150e-01 3.4878380006665780e-02  0.0000000000000000e+00 9.2366918353014960e-01 3.3418703037445874e-02  0.0000000000000000e+00 9.1966686599633196e-01 3.1955148441852106e-02  0.0000000000000000e+00 9.1526123184500563e-01 3.0539970912006015e-02  0.0000000000000000e+00 9.1044575888573820e-01 2.9201293585601754e-02  0.0000000000000000e+00 9.0522081745303018e-01 2.7934876924972252e-02  0.0000000000000000e+00 8.9953087524889219e-01 2.6729955034581195e-02  0.0000000000000000e+00 8.9323955202987781e-01 2.5550758907931494e-02  0.0000000000000000e+00 8.8636206199797307e-01 2.4405769726495510e-02  0.0000000000000000e+00 8.7895972251343890e-01 2.3318941360601336e-02  0.0000000000000000e+00 8.7099848712424821e-01 2.2290296103695994e-02  0.0000000000000000e+00 8.6250985008736059e-01 2.1320727597638180e-02  0.0000000000000000e+00 8.5341800498581022e-01 2.0387943740671058e-02  0.0000000000000000e+00 8.4394740345392294e-01 1.9529970307392380e-02  0.0000000000000000e+00 8.2217441074393482e-01 1.7859188461853030e-02  0.0000000000000000e+00 8.1061139779877256e-01 1.7105648475302999e-02  0.0000000000000000e+00 7.9866846216248955e-01 1.6418695327589109e-02  0.0000000000000000e+00 7.8590465981283220e-01 1.5743847369474630e-02  0.0000000000000000e+00 7.7253683689286579e-01 1.5105985831848802e-02  0.0000000000000000e+00 7.5853848789411638e-01 1.4493768243105221e-02  0.0000000000000000e+00 7.4422296213700179e-01 1.3932792936322489e-02  0.0000000000000000e+00 7.2957972697775630e-01 1.3413848899544398e-02  0.0000000000000000e+00 7.1450050087848249e-01 1.2924256444875812e-02  0.0000000000000000e+00 6.9893003692042788e-01 1.2458727377202005e-02  0.0000000000000000e+00 6.8288747453958809e-01 1.2014303483359181e-02  0.0000000000000000e+00 6.6677032861784480e-01 1.1606226932096099e-02  0.0000000000000000e+00 6.5057244517416557e-01 1.1230931335528093e-02  0.0000000000000000e+00 6.3432630130924994e-01 1.0885128516685268e-02  0.0000000000000000e+00 6.1787787639546032e-01 1.0558752881396122e-02  0.0000000000000000e+00 6.0124948179201387e-01 1.0250681611503483e-02  0.0000000000000000e+00 5.8460117204788942e-01 9.9622405237894691e-03  0.0000000000000000e+00 5.6819887325050689e-01 9.7003492659181456e-03  0.0000000000000000e+00 5.5212885568418224e-01 9.4644074080817240e-03  0.0000000000000000e+00 5.3629192698279560e-01 9.2483162836507708e-03  0.0000000000000000e+00 5.2047878993990582e-01 9.0451125659367134e-03  0.0000000000000000e+00 5.0487364655739897e-01 8.8574067977459960e-03  0.0000000000000000e+00 4.8946989814871911e-01 8.6836904093605116e-03  0.0000000000000000e+00 4.7460990925854274e-01 8.5285637548292298e-03  0.0000000000000000e+00 4.6031513661603335e-01 8.3918934181567966e-03  0.0000000000000000e+00 4.4653917074999422e-01 8.2711933316165758e-03  0.0000000000000000e+00 4.3313640049403723e-01 8.1626692669825186e-03  0.0000000000000000e+00 4.2000621209396444e-01 8.0638038769431548e-03  0.0000000000000000e+00 4.0719143320380863e-01 7.9729237782328547e-03  0.0000000000000000e+00 3.9482095837056097e-01 7.8933116117261160e-03  0.0000000000000000e+00 3.8306674395736717e-01 7.8256610966510841e-03  0.0000000000000000e+00 3.7198319004311831e-01 7.7700184345184803e-03  0.0000000000000000e+00 3.6146771845830089e-01 7.7248275662927888e-03  0.0000000000000000e+00 3.5151853358988561e-01 7.6881502603863951e-03  0.0000000000000000e+00 3.4207574505386462e-01 7.6585588676556350e-03  0.0000000000000000e+00 3.3282286535233718e-01 7.6329618161590715e-03  0.0000000000000000e+00 3.2392529113336532e-01 7.6130584827643847e-03  0.0000000000000000e+00 3.1564354095294034e-01 7.6000603298476983e-03  0.0000000000000000e+00 3.0772007471361545e-01 7.5915419142199778e-03  0.0000000000000000e+00 3.0024224649494785e-01 7.5883848783151429e-03  0.0000000000000000e+00 2.9355092261626275e-01 7.5905258700308398e-03  0.0000000000000000e+00 2.8731517658408695e-01 7.5977859108997932e-03  0.0000000000000000e+00 2.8156260522743526e-01 7.6069681288478347e-03  0.0000000000000000e+00 2.7618983367635203e-01 7.6185565872965216e-03  0.0000000000000000e+00 2.7120117088884876e-01 7.6314841266515374e-03  0.0000000000000000e+00 2.6654391352955087e-01 7.6456607435766511e-03  0.0000000000000000e+00 2.6224183569978904e-01 7.6605338163789772e-03  0.0000000000000000e+00 2.5830630184107439e-01 7.6758287436644815e-03  0.0000000000000000e+00 2.5466234448128100e-01 7.6912751836814217e-03  0.0000000000000000e+00 2.5132090024577297e-01 7.7062107695183820e-03  0.0000000000000000e+00 2.4836593427567202e-01 7.7207096239194552e-03  0.0000000000000000e+00 2.4580853865669730e-01 7.7345909423906165e-03  0.0000000000000000e+00 2.4364797364542451e-01 7.7479359523926353e-03  0.0000000000000000e+00 2.4174942515146147e-01 7.7600721340557776e-03  0.0000000000000000e+00 2.4023005817534704e-01 7.7699798368723793e-03  0.0000000000000000e+00 2.3900986025386564e-01 7.7779141934184119e-03  0.0000000000000000e+00 2.3777668754873355e-01 7.7875300957839233e-03  0.0000000000000000e+00 2.3694754040204516e-01 7.7908437675671387e-03  0.0000000000000000e+00 2.3733987836443532e-01 7.7898934685065920e-03  0.0000000000000000e+00 2.3767511438391256e-01 7.7874595435404263e-03  0.0000000000000000e+00 2.3826066164297940e-01 7.7831671160692459e-03  0.0000000000000000e+00 2.3920185205933209e-01 7.7771609284582694e-03  0.0000000000000000e+00 2.4049009414479594e-01 7.7689622735491407e-03  0.0000000000000000e+00 2.4199897010827559e-01 7.7593080813310429e-03  0.0000000000000000e+00 2.4383083097336528e-01 7.7480650956145885e-03  0.0000000000000000e+00 2.4558383678281812e-01 7.7364148324144842e-03  0.0000000000000000e+00 2.4818287682222276e-01 7.7228156155465695e-03  0.0000000000000000e+00 2.5090076891439467e-01 7.7091975767173745e-03  0.0000000000000000e+00 2.5386744856452886e-01 7.6955515015216039e-03  0.0000000000000000e+00 2.5695049700078654e-01 7.6809290217436897e-03  0.0000000000000000e+00 2.6035631123927405e-01 7.6666291808497886e-03  0.0000000000000000e+00 2.6415050091293246e-01 7.6532399490911720e-03  0.0000000000000000e+00 2.6807435048587552e-01 7.6402652480469530e-03  0.0000000000000000e+00 2.7220534292814724e-01 7.6275465322599356e-03  0.0000000000000000e+00 2.7655328569048704e-01 7.6158126231597959e-03  0.0000000000000000e+00 2.8115582320926830e-01 7.6057071400110043e-03  0.0000000000000000e+00 2.8608416509854495e-01 7.5975681910372172e-03  0.0000000000000000e+00 2.9133124427121676e-01 7.5914164312316738e-03  0.0000000000000000e+00 2.9683236370948163e-01 7.5873327490540423e-03  0.0000000000000000e+00 3.0264662162489836e-01 7.5862904079584638e-03  0.0000000000000000e+00 3.0881751868301849e-01 7.5887085382921960e-03  0.0000000000000000e+00 3.1532170756380778e-01 7.5949202422028348e-03  0.0000000000000000e+00 3.2214013888353266e-01 7.6050111899294550e-03  0.0000000000000000e+00 3.2920821535369238e-01 7.6189270189932134e-03  0.0000000000000000e+00 3.3649086023645253e-01 7.6363465548025568e-03  0.0000000000000000e+00 3.4394142807424866e-01 7.6571143335736917e-03  0.0000000000000000e+00 3.5155238030007202e-01 7.6811539924137757e-03  0.0000000000000000e+00 3.5931483450079210e-01 7.7084151758373470e-03  0.0000000000000000e+00 3.6732417345553015e-01 7.7401156542706044e-03  0.0000000000000000e+00 3.7565884901071056e-01 7.7779080773131186e-03  0.0000000000000000e+00 3.8445021200139240e-01 7.8226583321164712e-03  0.0000000000000000e+00 3.9362630965517065e-01 7.8746055336877934e-03  0.0000000000000000e+00 4.0315552234637564e-01 7.9338468118359713e-03  0.0000000000000000e+00 4.1293891676828998e-01 7.9990964175545038e-03  0.0000000000000000e+00 4.2289483627302055e-01 8.0698269709418898e-03  0.0000000000000000e+00 4.3293349615689142e-01 8.1456133374487993e-03  0.0000000000000000e+00 4.4327232227364632e-01 8.2278837200900103e-03  0.0000000000000000e+00 4.5374545583694237e-01 8.3161196355438678e-03  0.0000000000000000e+00 4.6432528814933244e-01 8.4108943296523769e-03  0.0000000000000000e+00 4.7540230087480334e-01 8.5163894486289578e-03  0.0000000000000000e+00 4.8699855612980314e-01 8.6361077384413849e-03  0.0000000000000000e+00 4.9898879462368850e-01 8.7680789224466194e-03  0.0000000000000000e+00 5.1094947276966285e-01 8.9061848667283602e-03  0.0000000000000000e+00 5.2342026497018157e-01 9.0590394962266913e-03  0.0000000000000000e+00 5.3574220348506674e-01 9.2162472732125866e-03  0.0000000000000000e+00 5.4820431984852169e-01 9.3819365912637728e-03  0.0000000000000000e+00 5.6076210539610649e-01 9.5614892141623869e-03  0.0000000000000000e+00 5.7379528654742051e-01 9.7582197996371779e-03  0.0000000000000000e+00 5.8727317364006149e-01 9.9774359565124749e-03  0.0000000000000000e+00 6.0098467666272015e-01 1.0215443135612477e-02  0.0000000000000000e+00 6.1474324679704528e-01 1.0467817140244404e-02  0.0000000000000000e+00 6.2845621513021588e-01 1.0733255553094893e-02  0.0000000000000000e+00 6.5590340306199357e-01 1.1316281967448286e-02  0.0000000000000000e+00 6.6980624578109138e-01 1.1644384833038219e-02  0.0000000000000000e+00 6.8388073281849726e-01 1.2005406272724856e-02  0.0000000000000000e+00 6.9798453340219624e-01 1.2394142515095415e-02  0.0000000000000000e+00 7.1191892062080275e-01 1.2806923917253885e-02  0.0000000000000000e+00 7.2558485577080190e-01 1.3241483767408510e-02  0.0000000000000000e+00 7.3902073325301643e-01 1.3703858615889406e-02  0.0000000000000000e+00 7.5234906995252626e-01 1.4205111373924571e-02  0.0000000000000000e+00 7.6559812146419071e-01 1.4753950415086616e-02  0.0000000000000000e+00 7.7863224434060530e-01 1.5348650697427009e-02  0.0000000000000000e+00 7.9124596649216838e-01 1.5979851597191844e-02  0.0000000000000000e+00 8.0333660608411894e-01 1.6639756560981048e-02  0.0000000000000000e+00 8.1496101072144045e-01 1.7342087687105441e-02  0.0000000000000000e+00 8.2626839470975444e-01 1.8107227781345915e-02  0.0000000000000000e+00 8.3717091719769510e-01 1.8934462528647240e-02  0.0000000000000000e+00 8.4758862231594345e-01 1.9822250817708224e-02  0.0000000000000000e+00 8.5740527967309055e-01 2.0756092520321571e-02  0.0000000000000000e+00 8.6657131104962082e-01 2.1732287731215230e-02  0.0000000000000000e+00 8.7526065071103998e-01 2.2790411598393023e-02  0.0000000000000000e+00 8.8344886713106541e-01 2.3928894055692412e-02  0.0000000000000000e+00 8.9110355282020726e-01 2.5149828093315708e-02  0.0000000000000000e+00 8.9812757780362140e-01 2.6425826406010940e-02  0.0000000000000000e+00 9.0454819506672379e-01 2.7757780822851113e-02  0.0000000000000000e+00 9.1045465055453523e-01 2.9180443412620286e-02  0.0000000000000000e+00 9.1587414943631251e-01 3.0709063348678976e-02  0.0000000000000000e+00 9.2079729061957261e-01 3.2334646692339403e-02  0.0000000000000000e+00 9.2521566345132011e-01 3.4028222227549580e-02  0.0000000000000000e+00 9.2910167013431888e-01 3.5771770327485762e-02  0.0000000000000000e+00 9.3256127162916991e-01 3.7616995506759704e-02  0.0000000000000000e+00 9.3561301099340444e-01 3.9566955247258784e-02  0.0000000000000000e+00 9.3827473350754576e-01 4.1620711210480665e-02  0.0000000000000000e+00 9.4055438037505257e-01 4.3744398930116370e-02  0.0000000000000000e+00 9.4247412000841735e-01 4.5907885927018131e-02  0.0000000000000000e+00 9.4407240851065255e-01 4.8144602136892478e-02  0.0000000000000000e+00 9.4538340810723653e-01 5.0492228190719315e-02  0.0000000000000000e+00 9.4641221875091475e-01 5.2909387338820633e-02  0.0000000000000000e+00 9.4718852167899648e-01 5.5378001934201927e-02  0.0000000000000000e+00 9.4775332739140805e-01 5.7886896356549818e-02  0.0000000000000000e+00 9.4811431664347101e-01 6.0375325744721521e-02  0.0000000000000000e+00 9.4829016587218562e-01 6.2884304770381663e-02  0.0000000000000000e+00 9.4830599158560303e-01 6.5449978566851752e-02  0.0000000000000000e+00 9.4817875927241524e-01 6.8041454584618771e-02  0.0000000000000000e+00 9.4792665806260523e-01 7.0652685046568700e-02  0.0000000000000000e+00 9.4759237512456507e-01 7.3158804447729639e-02  0.0000000000000000e+00 9.4718111373847269e-01 7.5617448705872350e-02  0.0000000000000000e+00 9.4672072220811798e-01 7.7964628568321787e-02  0.0000000000000000e+00 9.4623168228381838e-01 8.0194298352697785e-02  0.0000000000000000e+00 9.4571548952009687e-01 8.2337874469101374e-02  0.0000000000000000e+00 9.4517439162603156e-01 8.4385274630694659e-02  0.0000000000000000e+00 9.4461853580739963e-01 8.6349472301389507e-02  0.0000000000000000e+00 9.4406042773953880e-01 8.8234000054339304e-02  0.0000000000000000e+00 9.4353170391689700e-01 8.9944837135944616e-02  0.0000000000000000e+00 9.4304342428808607e-01 9.1470603485770310e-02  0.0000000000000000e+00 9.4260325039714188e-01 9.2816431936414007e-02  0.0000000000000000e+00 9.4222212684182061e-01 9.3962846336465830e-02  0.0000000000000000e+00 9.4190765356072625e-01 9.4891399977871410e-02  0.0000000000000000e+00 9.4809508590603608e-01 6.8970434184461415e-02  0.0000000000000000e+00 4.5862176783295500e-01 8.3629478722686730e-03  0.0000000000000000e+00 9.4753416254059653e-01 5.6711750656269024e-02  0.0000000000000000e+00 6.3639349631973730e-01 1.0899087993975033e-02  0.0000000000000000e+00 9.4200417447524520e-01 9.4590298220767352e-02  0.0000000000000000e+00 2.8047205532376290e-01 7.6149022121161604e-03  0.0000000000000000e+00 9.2505309905747968e-01 3.3979320731925680e-02  0.0000000000000000e+00 8.2730459869384365e-01 1.8223657788364798e-02  0.0000000000000000e+00 2.3974463780583727e-01 7.7821335114133692e-03  0.0000000000000000e+00 4.0195480297347519e-01 7.9414229362105519e-03  0.0000000000000000e+00 9.4313294160860628e-01 4.6780724843726848e-02  0.0000000000000000e+00 3.5699908414781023e-01 7.7048076111189542e-03  0.0000000000000000e+00 3.4696366823410352e-01 7.6769789483927282e-03  0.0000000000000000e+00 9.2714546374701012e-01 3.4861434079562999e-02  0.0000000000000000e+00 4.9754528136526505e-01 8.7752971215050869e-03  0.0000000000000000e+00 9.4814210946350674e-01 6.8723480803508652e-02  0.0000000000000000e+00 3.0700447224986294e-01 7.5931564714635637e-03  0.0000000000000000e+00 2.7169813255037745e-01 7.6351966554646569e-03  0.0000000000000000e+00 9.4591114208404781e-01 8.1563851207620830e-02  0.0000000000000000e+00 8.8769877231506111e-01 2.4590693322989281e-02  0.0000000000000000e+00 5.9261723652290021e-01 1.0099631739740255e-02  0.0000000000000000e+00 8.2077721601111275e-01 1.7725905533780627e-02  0.0000000000000000e+00 9.4411757368832316e-01 8.8046612486237366e-02  0.0000000000000000e+00 2.5169517472527658e-01 7.7133760376700000e-03  0.0000000000000000e+00 6.8894894072905721e-01 1.2178840812064598e-02  0.0000000000000000e+00 7.5966673397550732e-01 1.4506859728057155e-02  0.0000000000000000e+00 9.4223506606166074e-01 9.3912652241646716e-02  0.0000000000000000e+00 9.4557954372436137e-01 8.2833906461364612e-02  0.0000000000000000e+00 5.3091170076478378e-01 9.1580535812341123e-03  0.0000000000000000e+00 2.5476358760799317e-01 7.6982009805952210e-03  0.0000000000000000e+00 8.9591134775444625e-01 2.6036769907798383e-02  0.0000000000000000e+00 9.4239437006325932e-01 4.5796295309562099e-02  0.0000000000000000e+00 2.4152422172138263e-01 7.7691937085480967e-03  0.0000000000000000e+00 7.4998153835673764e-01 1.4152312645931999e-02  0.0000000000000000e+00 7.0574781869426428e-01 1.2624603760603021e-02  0.0000000000000000e+00 9.4153029221409579e-01 9.5970961532632112e-02  0.0000000000000000e+00 3.1322774788294083e-01 7.6015086920339283e-03  0.0000000000000000e+00 4.0950271688687540e-01 7.9799656736360899e-03  0.0000000000000000e+00 9.4347563081914931e-01 9.0098772396621729e-02  0.0000000000000000e+00 9.4789981812647883e-01 5.8762964449065348e-02  0.0000000000000000e+00 5.8339775643591496e-01 9.9178298749339616e-03  0.0000000000000000e+00 2.4466002919829308e-01 7.7506492394567783e-03  0.0000000000000000e+00 8.6715692371961883e-01 2.1840781445444282e-02  0.0000000000000000e+00 9.4741207579554587e-01 7.4343381564038108e-02  0.0000000000000000e+00 9.1237342804226129e-01 2.9718070471046219e-02  0.0000000000000000e+00 2.3903656217859134e-01 7.7852278986785210e-03  0.0000000000000000e+00 2.6603749545765010e-01 7.6534396934940007e-03  0.0000000000000000e+00 7.9159289075163641e-01 1.6036283819195595e-02  0.0000000000000000e+00 4.4017763519712672e-01 8.2212959520282323e-03  0.0000000000000000e+00 9.4703529357243521e-01 7.6350623278768515e-02  0.0000000000000000e+00 9.4558145278734018e-01 5.0846167451297358e-02  0.0000000000000000e+00 9.1329786663866397e-01 2.9952501857776318e-02  0.0000000000000000e+00 2.9037768222878507e-01 7.5982489053783662e-03  0.0000000000000000e+00 8.6261641405937761e-01 2.1297309462383479e-02  0.0000000000000000e+00 4.9443781343441112e-01 8.7214777978446654e-03  0.0000000000000000e+00 9.3654938055162529e-01 4.0241101125385551e-02  0.0000000000