<?xml version="1.0"?>
<VTKFile type="UnstructuredGrid"  version="0.1"  >
<UnstructuredGrid>
<Piece  NumberOfPoints="4940" NumberOfCells="9650">
<Points>
<DataArray  type="Float64"  NumberOfComponents="3"  format="ascii">500 250 0  0 250 0  250 500 0  250 0 0  256.8885856082646 499.9050767557906 0  263.7719401218049 499.6203791065173 0  270.6448364229772 499.1461232471188 0  277.5020553257866 498.4826693209355 0  284.3383895508592 497.6305211460281 0  291.1486476865662 496.5903258312597 0  297.9276581259182 495.3628732847843 0  304.6702729675493 493.9490956196674 0  311.3713719748657 492.3500664368026 0  318.0258664141369 490.5670000199653 0  324.6287029687753 488.6012504015818 0  331.1748675330201 486.4543103455647 0  337.6593890460416 484.1278102064655 0  344.0773432429536 481.6235166997244 0  350.4238564271474 478.9433315480048 0  356.694109139292 476.0892900492477 0  362.88333985546 473.0635595140469 0  368.9868485575419 469.8684376402048 0  375.0000003153078 466.5063507640667 0  380.9182288257928 462.9798520074548 0  386.7370398729688 459.2916193419558 0  392.4520147244077 455.444453565817 0  398.0588135356345 451.4412761437442 0  403.5531785622926 447.285127045646 0  408.9309374414144 442.9791624087773 0  414.1880064015299 438.5266521049243 0  419.3203932989752 433.9309773069245 0  424.324200661095 429.1956279150535 0  429.1956286596235 424.3241998957182 0  433.9309780058756 419.3203925397119 0  438.5266527445345 414.1880056671062 0  442.9791630130591 408.9309367076756 0  447.2851276060475 403.5531778422888 0  451.4412766621026 398.0588128303826 0  455.4444540361634 392.4520140460735 0  459.2916197786263 386.7370392045948 0  462.9798524073514 380.9182281752347 0  466.5063511234856 374.9999996927758 0  469.8684379657123 368.9868479560565 0  473.0635598144817 362.8833392617846 0  476.0892903190255 356.6941085676214 0  478.9433317963513 350.4238558609745 0  481.6235169154735 344.0773427117675 0  484.12781039012 337.6593885555221 0  486.4543105028062 331.1748670749914 0  488.601250531677 324.6287025528375 0  490.5670001317469 318.0258660188321 0  492.3500665291326 311.3713716102628 0  493.949095695951 304.6702726271575 0  495.3628733416623 297.9276578347343 0  496.5903258712341 291.1486474470129 0  497.6305211749058 284.3383893426084 0  498.4826693388848 277.502055163614 0  499.1461232580606 270.6448362909296 0  499.6203791109319 263.7719400417897 0  499.9050767571306 256.8885855596534 0  499.9050767559877 243.1114143988867 0  499.6203791069493 236.2280598860241 0  499.1461232485393 229.3551635941651 0  498.4826693235677 222.4979446979962 0  497.6305211491849 215.6616104719064 0  496.5903258357701 208.8513523404629 0  495.3628732906988 202.0723419043604 0  493.9490956264813 195.3297270628552 0  492.3500664487791 188.6286280724281 0  490.5670000344809 181.9741336371959 0  488.6012504175981 175.3712970824318 0  486.4543103623226 168.8251325157939 0  484.1278102222298 162.3406109960628 0  481.6235167152198 155.9226567951971 0  478.9433315621651 149.5761436051346 0  476.0892900516498 143.3058908657982 0  473.063559513628 137.1166601437124 0  469.8684376406648 131.0131514433083 0  466.5063507675389 124.9999996907064 0  462.9798520124137 119.0817711822745 0  459.2916193464549 113.2629601339176 0  455.4444535642773 107.5479852733717 0  451.4412761528674 101.9411864767781 0  447.2851270583545 96.44682145403524 0  442.9791624165781 91.06906256805769 0  438.5266521117469 85.81199360630404 0  433.9309773156125 80.67960671046254 0  429.1956279150353 75.67579933888632 0  424.3241998888952 70.80437133373906 0  419.3203925223282 66.06902197812161 0  414.1880056411937 61.47334723289828 0  408.9309366751728 57.0208369601728 0  403.5531778009394 52.71487236176898 0  398.058812796452 48.55872331295853 0  392.4520140187753 44.55554594490843 0  386.7370391799677 40.70838020528396 0  380.9182281475119 37.02014757560744 0  374.9999996718656 33.49364886444181 0  368.9868479340393 30.13156202237255 0  362.8833392380029 26.93644017348339 0  356.6941085456942 23.91070967062674 0  350.4238558420009 21.0566681953261 0  344.0773426899492 18.37648307566465 0  337.6593885328982 15.87218960140942 0  331.1748670549786 13.54568949032341 0  324.6287025315056 11.39874946165088 0  318.0258660010876 9.432999863235466 0  311.3713716017894 7.649933468721599 0  304.6702726190621 6.050904302234756 0  297.9276578269805 4.637126656823085 0  291.148647441857 3.409674127905504 0  284.3383893425031 2.369478825079682 0  277.502055159398 1.517330660648639 0  270.6448362875833 0.853876741662134 0  263.7719400401456 0.3796208889774277 0  256.8885855592052 0.09492324285704967 0  243.1114143979462 0.09492324403817065 0  236.2280598850882 0.3796208931023841 0  229.3551635938215 0.8538767514891958 0  222.4979446968584 1.517330676558146 0  215.6616104703111 2.369478851036291 0  208.8513523382973 3.409674164591252 0  202.0723419066374 4.637126708856528 0  195.3297270659513 6.050904372824903 0  188.628628074828 7.649933550613184 0  181.9741336377093 9.432999965373938 0  175.3712970793675 11.39874958336037 0  168.8251325057572 13.54568964112298 0  162.340610986655 15.87218978129263 0  155.9226567874317 18.37648328793418 0  149.576143602509 21.05666843898663 0  143.3058908718157 23.91070994551046 0  137.1166601505524 26.93644048291054 0  131.0131514451933 30.13156235831508 0  124.9999996848412 33.49364923584736 0  119.0817711715717 37.0201479941652 0  113.2629601211624 40.70838066187849 0  107.5479852622251 44.55554644345162 0  101.9411864693332 48.55872385260452 0  96.44682143286516 52.71487295812284 0  91.06906254351222 57.02083760363669 0  85.81199358272519 61.4733479087879 0  80.67960667988106 66.06902271253972 0  75.67579930062769 70.80437212218331 0  70.80437129287643 75.67580015310926 0  66.06902193673014 80.67960752263491 0  61.47334718684866 85.81199441168215 0  57.02083692524275 91.0690633672404 0  52.71487232786438 96.44682224262129 0  48.55872328070024 101.941187247437 0  44.55554591578033 107.5479860232332 0  40.7083801742321 113.2629608675606 0  37.02014754791168 119.0817718975441 0  33.49364883372994 125.000000381329 0  30.13156199866361 131.0131521097709 0  26.9364401549829 137.1166607985551 0  23.91070965524918 143.3058914868915 0  21.05666818346614 149.576144185037 0  18.37648306853811 155.9226573275967 0  15.8721895918909 162.3406114925245 0  13.54568948170046 168.8251329701392 0  11.39874945301878 175.3712974960928 0  9.432999857087736 181.9741340206533 0  7.649933466342702 188.6286284076045 0  6.050904301250966 195.3297273853278 0  4.637126656808988 202.0723421730917 0  3.409674127767772 208.8513525589684 0  2.369478824521138 215.6616106615248 0  1.517330660909465 222.4979448382452 0  0.8538767414496533 229.355163714981 0  0.3796208887135322 236.2280599646376 0  0.09492324266324204 243.1114144478261 0  0.0949232442452228 256.8885856095658 0  0.3796208935834784 263.7719401236316 0  0.8538767530323526 270.6448364248016 0  1.517330679476544 277.5020553295092 0  2.369478854618649 284.3383895555228 0  3.409674170191892 291.1486476952655 0  4.6371267162381 297.9276581311522 0  6.050904381420935 304.6702729724059 0  7.649933562385399 311.3713719716595 0  9.43299997979841 318.0258664133013 0  11.3987495994252 324.6287029719946 0  13.54568965885832 331.174867545904 0  15.87218979367188 337.6593890464085 0  18.37648329843151 344.0773432384132 0  21.05666844777872 350.423856417535 0  23.91070995156048 356.6941091410045 0  26.93644048988043 362.8833398632205 0  30.13156235982007 368.9868485575877 0  33.49364924138357 375.0000003247478 0  37.0201480006036 380.9182288389023 0  40.70838066758398 386.7370398875706 0  44.55554644477201 392.4520147396792 0  48.55872386086904 398.0588135419111 0  52.71487295981296 403.5531785693063 0  57.02083760525949 408.9309374584583 0  61.47334790862246 414.1880064170849 0  66.06902271205095 419.320393319588 0  70.80437211216579 424.3242006890749 0  75.67580013809859 429.195628692521 0  80.6796075127923 433.930978054209 0  85.81199439754931 438.5266528008431 0  91.06906334717917 442.9791630582355 0  96.44682221438322 447.2851276501571 0  101.9411872243843 451.441276702356 0  107.5479859945825 455.4444540643537 0  113.2629608446994 459.2916198108319 0  119.0817718768376 462.9798524393601 0  125.0000003647644 466.5063511567065 0  131.0131521012763 469.8684379967393 0  137.1166607840049 473.0635598376539 0  143.3058914748804 476.0892903390826 0  149.5761441732679 478.9433318113714 0  155.9226573130112 481.6235169255377 0  162.3406114779862 484.1278104026658 0  168.8251329570439 486.4543105138039 0  175.3712974805475 488.601250542119 0  181.9741340135204 490.5670001408953 0  188.6286284005059 492.3500665318597 0  195.3297273788229 493.9490956972913 0  202.0723421640089 495.3628733414168 0  208.8513525529672 496.5903258712308 0  215.6616106544547 497.6305211744985 0  222.4979448327038 498.4826693384772 0  229.3551637102845 499.1461232581612 0  236.2280599621369 499.6203791111485 0  243.1114144470173 499.9050767573145 0  155.2373389820306 474.8197567317462 0  25.36256300907667 153.9152755065208 0  432.3709625126712 412.6214396304305 0  6.013151705810699 246.637913163471 0  246.6379131630491 493.986848294322 0  338.6995838441862 22.68244767887072 0  477.3175523131281 338.6995838660569 0  493.9868482700757 246.6379131399102 0  246.6201155078769 6.218451882810491 0  417.6179310263282 72.7156044707053 0  102.2232990934413 445.0100869616822 0  63.66330858966404 92.20354579482142 0  391.3105220491464 50.73522820883105 0  72.79295043967942 418.0702734974704 0  448.290574428537 108.25674339002 0  402.4604651193511 440.7462829841712 0  97.55317348421397 59.11376320116034 0  136.7376477664901 33.58246472647134 0  363.3288394375288 465.6947312928271 0  44.0678766556007 381.0860953771871 0  469.6905266180034 142.3890690100806 0  22.68244791668644 338.6995843487432 0  338.699584349159 477.317552078365 0  173.389488083762 18.6681884918202 0  483.4809734778481 179.7121987795732 0  13.50237455842738 306.4709525540879 0  305.9825168523021 487.24416992
[...]
<PointData  Vectors="f_12"> 
<DataArray  type="Float64"  Name="f_12"  NumberOfComponents="3" format="ascii">0.0000000000000000e+00 8.0459311336625677e-02 1.5437969288276805e-02  0.0000000000000000e+00 3.8153797455750198e-02 3.6353487217547484e-02  0.0000000000000000e+00 4.1937724654953495e-01 8.0768480794762790e-03  0.0000000000000000e+00 1.5243155928622003e-02 2.7912443251790997e-01  0.0000000000000000e+00 4.2128606674830510e-01 8.0900664786174060e-03  0.0000000000000000e+00 4.2245124036632864e-01 8.0982119983280306e-03  0.0000000000000000e+00 4.2309475205824754e-01 8.1026520210679548e-03  0.0000000000000000e+00 4.2307503098474319e-01 8.1025811330759766e-03  0.0000000000000000e+00 4.2247273613328873e-01 8.0983336545134878e-03  0.0000000000000000e+00 4.2128130882148390e-01 8.0898904362076991e-03  0.0000000000000000e+00 4.1950393753348236e-01 8.0773781775937067e-03  0.0000000000000000e+00 4.1716547538751703e-01 8.0611398408893670e-03  0.0000000000000000e+00 4.1425752954919853e-01 8.0411946172214838e-03  0.0000000000000000e+00 4.1076645959535402e-01 8.0176894228615406e-03  0.0000000000000000e+00 4.0661226775475845e-01 7.9902914664679338e-03  0.0000000000000000e+00 4.0220974853820851e-01 7.9618570937597041e-03  0.0000000000000000e+00 3.9703854645287040e-01 7.9298003539591249e-03  0.0000000000000000e+00 3.9170870399460211e-01 7.8983708792280550e-03  0.0000000000000000e+00 3.8604981194642729e-01 7.8666097666292550e-03  0.0000000000000000e+00 3.8019525386916392e-01 7.8354113811225576e-03  0.0000000000000000e+00 3.7424141953384371e-01 7.8062579796291881e-03  0.0000000000000000e+00 3.6808409563942429e-01 7.7794164800707938e-03  0.0000000000000000e+00 3.6178254255535763e-01 7.7546653527846929e-03  0.0000000000000000e+00 3.5535503462326212e-01 7.7321279071342897e-03  0.0000000000000000e+00 3.4859212603846368e-01 7.7112332350553793e-03  0.0000000000000000e+00 3.4132846611315854e-01 7.6918437735971051e-03  0.0000000000000000e+00 3.3350255679192314e-01 7.6731992989450453e-03  0.0000000000000000e+00 3.2533383671605864e-01 7.6568496618610610e-03  0.0000000000000000e+00 3.1683287304828089e-01 7.6440917309488054e-03  0.0000000000000000e+00 3.0807718168233084e-01 7.6352686384927497e-03  0.0000000000000000e+00 2.9949309666692331e-01 7.6334383831631958e-03  0.0000000000000000e+00 2.9107235484493954e-01 7.6393509837462395e-03  0.0000000000000000e+00 2.8282600705136146e-01 7.6533224170903663e-03  0.0000000000000000e+00 2.7462903720842241e-01 7.6742452541039398e-03  0.0000000000000000e+00 2.6616898789509486e-01 7.7034804334753237e-03  0.0000000000000000e+00 2.5744939150906287e-01 7.7411258257172721e-03  0.0000000000000000e+00 2.4851365742916190e-01 7.7863486643247109e-03  0.0000000000000000e+00 2.3943276147923495e-01 7.8420376227679583e-03  0.0000000000000000e+00 2.3048239064751788e-01 7.9101707448590419e-03  0.0000000000000000e+00 2.2192605553609626e-01 7.9902930415833191e-03  0.0000000000000000e+00 2.1369711495379040e-01 8.0834739646154317e-03  0.0000000000000000e+00 2.0549911208313926e-01 8.1920320012199947e-03  0.0000000000000000e+00 1.9718859920884865e-01 8.3160748052580960e-03  0.0000000000000000e+00 1.8884836481612879e-01 8.4585002597644190e-03  0.0000000000000000e+00 1.8056568068635298e-01 8.6195581989987127e-03  0.0000000000000000e+00 1.7256072016977927e-01 8.7992943588862341e-03  0.0000000000000000e+00 1.6494842484368477e-01 8.9984662132350825e-03  0.0000000000000000e+00 1.5766301354218984e-01 9.2211416267421742e-03  0.0000000000000000e+00 1.5042046003315282e-01 9.4712970488011611e-03  0.0000000000000000e+00 1.4324087267207375e-01 9.7494221121560941e-03  0.0000000000000000e+00 1.3619878878657890e-01 1.0060686712368544e-02  0.0000000000000000e+00 1.2945499174936059e-01 1.0399925399002237e-02  0.0000000000000000e+00 1.2309619746378857e-01 1.0772482699978264e-02  0.0000000000000000e+00 1.1703027654362090e-01 1.1180582478290213e-02  0.0000000000000000e+00 1.1114788819774642e-01 1.1630434837078433e-02  0.0000000000000000e+00 1.0540137770007191e-01 1.2130957289121358e-02  0.0000000000000000e+00 9.9800786222029647e-02 1.2683175302953213e-02  0.0000000000000000e+00 9.4497536074863844e-02 1.3287734166267039e-02  0.0000000000000000e+00 8.9533601506218863e-02 1.3929615325796457e-02  0.0000000000000000e+00 8.4953424344863582e-02 1.4621764909891609e-02  0.0000000000000000e+00 7.6053245917921938e-02 1.6275904939457485e-02  0.0000000000000000e+00 7.1885489083360177e-02 1.7216921743686376e-02  0.0000000000000000e+00 6.8056859273825057e-02 1.8230371628962450e-02  0.0000000000000000e+00 6.4436854869677040e-02 1.9318813039806131e-02  0.0000000000000000e+00 6.1031606980544932e-02 2.0518284363388713e-02  0.0000000000000000e+00 5.7717991358110177e-02 2.1827484961454112e-02  0.0000000000000000e+00 5.4579973405295315e-02 2.3270363217824355e-02  0.0000000000000000e+00 5.1654645493181689e-02 2.4820352102255024e-02  0.0000000000000000e+00 4.8957039919413005e-02 2.6481067454511193e-02  0.0000000000000000e+00 4.6439092469213128e-02 2.8274882116334887e-02  0.0000000000000000e+00 4.4022170794013736e-02 3.0237690210255838e-02  0.0000000000000000e+00 4.1727162834741628e-02 3.2388423780172024e-02  0.0000000000000000e+00 3.9563008113096237e-02 3.4717208666871384e-02  0.0000000000000000e+00 3.7583320443509920e-02 3.7192781391599677e-02  0.0000000000000000e+00 3.5765107939112889e-02 3.9820798144645418e-02  0.0000000000000000e+00 3.4064905441632293e-02 4.2652226529268276e-02  0.0000000000000000e+00 3.2438767724590638e-02 4.5741469216247548e-02  0.0000000000000000e+00 3.0895277519327632e-02 4.9104721423244339e-02  0.0000000000000000e+00 2.9464718514324448e-02 5.2699765364215667e-02  0.0000000000000000e+00 2.8164596356102970e-02 5.6477225726156495e-02  0.0000000000000000e+00 2.6973204895982567e-02 6.0452954452027238e-02  0.0000000000000000e+00 2.5874013687614821e-02 6.4672041160677790e-02  0.0000000000000000e+00 2.4823127445791956e-02 6.9255410042668983e-02  0.0000000000000000e+00 2.3831551157293629e-02 7.4187010031000894e-02  0.0000000000000000e+00 2.2913449380943748e-02 7.9422518065896480e-02  0.0000000000000000e+00 2.2087799351841377e-02 8.4847241593809034e-02  0.0000000000000000e+00 2.1350047433646466e-02 9.0410595426104912e-02  0.0000000000000000e+00 2.0680497954729024e-02 9.6183975741402708e-02  0.0000000000000000e+00 2.0052814832073600e-02 1.0228405550132132e-01  0.0000000000000000e+00 1.9460155409187579e-02 1.0883211917061575e-01  0.0000000000000000e+00 1.8905391138631832e-02 1.1578648810212766e-01  0.0000000000000000e+00 1.8402442773918049e-02 1.2301181069078887e-01  0.0000000000000000e+00 1.7958819863307246e-02 1.3036612470263345e-01  0.0000000000000000e+00 1.7575518799738028e-02 1.3765045700122244e-01  0.0000000000000000e+00 1.7244191292845785e-02 1.4485018678733652e-01  0.0000000000000000e+00 1.6941544397943153e-02 1.5227696401249341e-01  0.0000000000000000e+00 1.6665680388472087e-02 1.5997391951951609e-01  0.0000000000000000e+00 1.6417406203761517e-02 1.6785307514127373e-01  0.0000000000000000e+00 1.6187006139889899e-02 1.7615923774365475e-01  0.0000000000000000e+00 1.5983239595800391e-02 1.8471524272902173e-01  0.0000000000000000e+00 1.5814429883881591e-02 1.9297478981500982e-01  0.0000000000000000e+00 1.5680031265467985e-02 2.0106319903059758e-01  0.0000000000000000e+00 1.5569566027670935e-02 2.0873667078765615e-01  0.0000000000000000e+00 1.5483228973676195e-02 2.1604651341346562e-01  0.0000000000000000e+00 1.5414563465774961e-02 2.2296963871770625e-01  0.0000000000000000e+00 1.5360687750180938e-02 2.2960231097818926e-01  0.0000000000000000e+00 1.5318374775913191e-02 2.3594197780138740e-01  0.0000000000000000e+00 1.5286259664037362e-02 2.4199226697087892e-01  0.0000000000000000e+00 1.5261873498533335e-02 2.4786614052745962e-01  0.0000000000000000e+00 1.5243613911214326e-02 2.5351946640295908e-01  0.0000000000000000e+00 1.5232547427241680e-02 2.5876577304337645e-01  0.0000000000000000e+00 1.5227578062205848e-02 2.6354417063099872e-01  0.0000000000000000e+00 1.5228058677045376e-02 2.6776338324283666e-01  0.0000000000000000e+00 1.5230731383584386e-02 2.7159077821897598e-01  0.0000000000000000e+00 1.5235280353037303e-02 2.7473870575138021e-01  0.0000000000000000e+00 1.5240345726791667e-02 2.7730271694213482e-01  0.0000000000000000e+00 1.5246957265264625e-02 2.7997537472192308e-01  0.0000000000000000e+00 1.5247058421290127e-02 2.8171474077705488e-01  0.0000000000000000e+00 1.5248056777117561e-02 2.8093541473723677e-01  0.0000000000000000e+00 1.5245769252830749e-02 2.8022804625639464e-01  0.0000000000000000e+00 1.5242470942848656e-02 2.7899164290141776e-01  0.0000000000000000e+00 1.5239346424968834e-02 2.7702634570383883e-01  0.0000000000000000e+00 1.5234958153560685e-02 2.7436691244869349e-01  0.0000000000000000e+00 1.5231626665888131e-02 2.7131342029930910e-01  0.0000000000000000e+00 1.5229422952900067e-02 2.6770273427994612e-01  0.0000000000000000e+00 1.5228421153228684e-02 2.6430478142229280e-01  0.0000000000000000e+00 1.5233458032338651e-02 2.5950964174903202e-01  0.0000000000000000e+00 1.5241722641612438e-02 2.5470671039728332e-01  0.0000000000000000e+00 1.5257115818114135e-02 2.4968967144982801e-01  0.0000000000000000e+00 1.5273518861420261e-02 2.4468608528096175e-01  0.0000000000000000e+00 1.5297285911263565e-02 2.3941288687879728e-01  0.0000000000000000e+00 1.5331049940851882e-02 2.3378559547962818e-01  0.0000000000000000e+00 1.5370741755304285e-02 2.2818357185507337e-01  0.0000000000000000e+00 1.5418034519441945e-02 2.2246537816837597e-01  0.0000000000000000e+00 1.5474725810984941e-02 2.1658819242180133e-01  0.0000000000000000e+00 1.5544359041618907e-02 2.1047509155010044e-01  0.0000000000000000e+00 1.5631421973005721e-02 2.0404516017462829e-01  0.0000000000000000e+00 1.5737054895602915e-02 1.9733550248146553e-01  0.0000000000000000e+00 1.5860318565765953e-02 1.9050099134082782e-01  0.0000000000000000e+00 1.6004387654591175e-02 1.8357884815935355e-01  0.0000000000000000e+00 1.6169170480886313e-02 1.7664630088124320e-01  0.0000000000000000e+00 1.6352273992240467e-02 1.6985040211473265e-01  0.0000000000000000e+00 1.6550449958992637e-02 1.6328199137074920e-01  0.0000000000000000e+00 1.6760775836155973e-02 1.5701383615257999e-01  0.0000000000000000e+00 1.6982727632544006e-02 1.5102200238691529e-01  0.0000000000000000e+00 1.7218177085198093e-02 1.4524918848205237e-01  0.0000000000000000e+00 1.7472127544940836e-02 1.3959753739777581e-01  0.0000000000000000e+00 1.7750020568016858e-02 1.3399342559800861e-01  0.0000000000000000e+00 1.8060593157986998e-02 1.2834439994340838e-01  0.0000000000000000e+00 1.8410966599471230e-02 1.2266103426113113e-01  0.0000000000000000e+00 1.8802433931735658e-02 1.1696108020400711e-01  0.0000000000000000e+00 1.9226423305967681e-02 1.1142909594002789e-01  0.0000000000000000e+00 1.9673970088208127e-02 1.0616615802437453e-01  0.0000000000000000e+00 2.0135723523727542e-02 1.0123586003197460e-01  0.0000000000000000e+00 2.0610179513728951e-02 9.6618821315423570e-02  0.0000000000000000e+00 2.1103533883180481e-02 9.2250506367993965e-02  0.0000000000000000e+00 2.1641208071279321e-02 8.7934996675251509e-02  0.0000000000000000e+00 2.2227361028677336e-02 8.3683598262049630e-02  0.0000000000000000e+00 2.2867171247410993e-02 7.9526379706838207e-02  0.0000000000000000e+00 2.3575258623952430e-02 7.5386371811026018e-02  0.0000000000000000e+00 2.4345407188384387e-02 7.1376835249890150e-02  0.0000000000000000e+00 2.5152533621615333e-02 6.7595987917680261e-02  0.0000000000000000e+00 2.5965292465723377e-02 6.4143874599636205e-02  0.0000000000000000e+00 2.6835254525332641e-02 6.0814133322109248e-02  0.0000000000000000e+00 2.7745734520600439e-02 5.7678661576850136e-02  0.0000000000000000e+00 2.8735867926759091e-02 5.4592830190117056e-02  0.0000000000000000e+00 2.9830645846950957e-02 5.1602817432280922e-02  0.0000000000000000e+00 3.1032280515283915e-02 4.8656914134776859e-02  0.0000000000000000e+00 3.2327505745368808e-02 4.5855593709573553e-02  0.0000000000000000e+00 3.3674922032353248e-02 4.3250800219335417e-02  0.0000000000000000e+00 3.5069224323598880e-02 4.0835226901417256e-02  0.0000000000000000e+00 3.6543184212569933e-02 3.8553006721332418e-02  0.0000000000000000e+00 3.9932777711562610e-02 3.4216751368351374e-02  0.0000000000000000e+00 4.1869963343918078e-02 3.2169405297491724e-02  0.0000000000000000e+00 4.3934759994619751e-02 3.0255507557321284e-02  0.0000000000000000e+00 4.6088504990989168e-02 2.8480705434265119e-02  0.0000000000000000e+00 4.8353936297056532e-02 2.6833121121986266e-02  0.0000000000000000e+00 5.0796687693720706e-02 2.5272765369566789e-02  0.0000000000000000e+00 5.3481752105094885e-02 2.3782135276946489e-02  0.0000000000000000e+00 5.6416653704049621e-02 2.2365672359603656e-02  0.0000000000000000e+00 5.9553538722844482e-02 2.1045789928515031e-02  0.0000000000000000e+00 6.2845593617841145e-02 1.9829588514419908e-02  0.0000000000000000e+00 6.6321245598378722e-02 1.8710144450140503e-02  0.0000000000000000e+00 7.0056759929879808e-02 1.7660544261383110e-02  0.0000000000000000e+00 7.4128819897541998e-02 1.6678373011729787e-02  0.0000000000000000e+00 7.8533259865401744e-02 1.5761110822616584e-02  0.0000000000000000e+00 8.3168512121965063e-02 1.4918520006404536e-02  0.0000000000000000e+00 8.8039460403665656e-02 1.4149224301693217e-02  0.0000000000000000e+00 9.3227431241796194e-02 1.3440715025210357e-02  0.0000000000000000e+00 9.8794883322697064e-02 1.2783368880329538e-02  0.0000000000000000e+00 1.0481596593301851e-01 1.2183091125554719e-02  0.0000000000000000e+00 1.1113609517057554e-01 1.1629613396750112e-02  0.0000000000000000e+00 1.1773020449020352e-01 1.1131605848960672e-02  0.0000000000000000e+00 1.2463714403279791e-01 1.0679979294358762e-02  0.0000000000000000e+00 1.3200884244620109e-01 1.0268234968965837e-02  0.0000000000000000e+00 1.3989051636539240e-01 9.8960333857698642e-03  0.0000000000000000e+00 1.4812472780116365e-01 9.5603791119918194e-03  0.0000000000000000e+00 1.5656995338385560e-01 9.2619519232968895e-03  0.0000000000000000e+00 1.6529823527219700e-01 8.9959175910229554e-03  0.0000000000000000e+00 1.7441747528007948e-01 8.7611216366915937e-03  0.0000000000000000e+00 1.8407885278500150e-01 8.5556978188922120e-03  0.0000000000000000e+00 1.9404686148419273e-01 8.3748084702133935e-03  0.0000000000000000e+00 2.0411632610395680e-01 8.2182356522011966e-03  0.0000000000000000e+00 2.1424276351390836e-01 8.0843000277756212e-03  0.0000000000000000e+00 2.2456761385748139e-01 7.9713703480209699e-03  0.0000000000000000e+00 2.3528039950372776e-01 7.8792216337478498e-03  0.0000000000000000e+00 2.4634314819175282e-01 7.8058862578892826e-03  0.0000000000000000e+00 2.5737225065284353e-01 7.7474597817491081e-03  0.0000000000000000e+00 2.6815031241410903e-01 7.7026092325624945e-03  0.0000000000000000e+00 2.7875333075094383e-01 7.6690917824772265e-03  0.0000000000000000e+00 2.8922045739870772e-01 7.6478038110502780e-03  0.0000000000000000e+00 2.9976385746185435e-01 7.6400211165131527e-03  0.0000000000000000e+00 3.1046480702736889e-01 7.6436532323545517e-03  0.0000000000000000e+00 3.2107243163044680e-01 7.6556363728388227e-03  0.0000000000000000e+00 3.3133947266261571e-01 7.6747650954191553e-03  0.0000000000000000e+00 3.4088597803208665e-01 7.6951677944783669e-03  0.0000000000000000e+00 3.4978450596779692e-01 7.7192617374475317e-03  0.0000000000000000e+00 3.5803061948524811e-01 7.7455115682219184e-03  0.0000000000000000e+00 3.6577264362358886e-01 7.7732809790367844e-03  0.0000000000000000e+00 3.7317859248694168e-01 7.8034656735036260e-03  0.0000000000000000e+00 3.8026420451963933e-01 7.8378734774259134e-03  0.0000000000000000e+00 3.8706240614337262e-01 7.8741480380636227e-03  0.0000000000000000e+00 3.9356915439429435e-01 7.9111229782135462e-03  0.0000000000000000e+00 3.9952994177298057e-01 7.9469555215300278e-03  0.0000000000000000e+00 4.0485744113811328e-01 7.9807940966217118e-03  0.0000000000000000e+00 4.0953463518263100e-01 8.0109988611961405e-03  0.0000000000000000e+00 4.1350824016960275e-01 8.0371925201278942e-03  0.0000000000000000e+00 4.1673257182176709e-01 8.0588243696586188e-03  0.0000000000000000e+00 3.2564468827562632e-01 7.6643229619650097e-03  0.0000000000000000e+00 2.2520238958085546e-02 8.1770667025866897e-02  0.0000000000000000e+00 2.6919252367636953e-01 7.6931677403209095e-03  0.0000000000000000e+00 3.7455624434095017e-02 3.7290632553017296e-02  0.0000000000000000e+00 4.1692680842209567e-01 8.0606746036095030e-03  0.0000000000000000e+00 1.5558080058638612e-02 2.1022792498044537e-01  0.0000000000000000e+00 1.6090233637186657e-01 9.1204614198583910e-03  0.0000000000000000e+00 7.8146632713759462e-02 1.5854332035221710e-02  0.0000000000000000e+00 1.5248030943961995e-02 2.7590063095408029e-01  0.0000000000000000e+00 1.9798374119917451e-02 1.0504466901228086e-01  0.0000000000000000e+00 2.2916021645313883e-01 7.9302344308627235e-03  0.0000000000000000e+00 1.7672151226745675e-02 1.3564659560428471e-01  0.0000000000000000e+00 1.7413587993187166e-02 1.4115562099020612e-01  0.0000000000000000e+00 1.6991179618149921e-01 8.8736573597277667e-03  0.0000000000000000e+00 2.5370667643184214e-02 6.6814638537592341e-02  0.0000000000000000e+00 3.2055607921522011e-01 7.6500571585728129e-03  0.0000000000000000e+00 1.6125651225713696e-02 1.7869457228948801e-01  0.0000000000000000e+00 1.5419618990386475e-02 2.2309443124970624e-01  0.0000000000000000e+00 3.6987244217814325e-01 7.7877320193749325e-03  0.0000000000000000e+00 1.1480933234655631e-01 1.1346802753574680e-02  0.0000000000000000e+00 3.3221724713878714e-02 4.4211789702995163e-02  0.0000000000000000e+00 7.6349872542524844e-02 1.6201801504899430e-02  0.0000000000000000e+00 3.9338571389007160e-01 7.9087766632268512e-03  0.0000000000000000e+00 1.5253461746272630e-02 2.5341998333216992e-01  0.0000000000000000e+00 4.4952418501279505e-02 2.9457227206506544e-02  0.0000000000000000e+00 5.8119658662465455e-02 2.1636283553843817e-02  0.0000000000000000e+00 4.1474713574347205e-01 8.0451835138519914e-03  0.0000000000000000e+00 3.7595606858781450e-01 7.8175371715463009e-03  0.0000000000000000e+00 2.7383693395644903e-02 5.8916974736950858e-02  0.0000000000000000e+00 1.5270024853346291e-02 2.4782720504146086e-01  0.0000000000000000e+00 1.1980434181065133e-01 1.0989053606084341e-02  0.0000000000000000e+00 2.1875099052856156e-01 8.0257364613161488e-03  0.0000000000000000e+00 1.5241228032038418e-02 2.7234781831508631e-01  0.0000000000000000e+00 5.5873953455838614e-02 2.2654074822382780e-02  0.0000000000000000e+00 4.7324154566968049e-02 2.7565613333340504e-02  0.0000000000000000e+00 4.2165532783626419e-01 8.0931514015982944e-03  0.0000000000000000e+00 1.6348862112190717e-02 1.7044305502874385e-01  0.0000000000000000e+00 1.9975856439910126e-02 1.0296039077061865e-01  0.0000000000000000e+00 4.0126674776356913e-01 7.9585651852649968e-03  0.0000000000000000e+00 2.8316913840848196e-01 7.6597127499576602e-03  0.0000000000000000e+00 3.1946766157764553e-02 4.6668208679930490e-02  0.0000000000000000e+00 1.5238228178515251e-02 2.6596961727626556e-01  0.0000000000000000e+00 9.7542322702363377e-02 1.2933598684567340e-02  0.0000000000000000e+00 3.4365689951233835e-01 7.6986280533182568e-03  0.0000000000000000e+00 1.3937619562049969e-01 9.9169308531057120e-03  0.0000000000000000e+00 1.5249079380309317e-02 2.7742416118645852e-01  0.0000000000000000e+00 1.5361776165332913e-02 2.3037089680296982e-01  0.0000000000000000e+00 6.6110738150764833e-02 1.8797508372110541e-02  0.0000000000000000e+00 2.1728359583673584e-02 8.7499853337354661e-02  0.0000000000000000e+00 3.5333413636761457e-01 7.7307964775975534e-03  0.0000000000000000e+00 2.4301590951227184e-01 7.8199068007092278e-03  0.0000000000000000e+00 1.4430891072762569e-01 9.7116841446594233e-03  0.0000000000000000e+00 1.5725723872922759e-02 1.9850642207199642e-01  0.0000000000000000e+00 9.6341018964200942e-02 1.3062929586543133e-02  0.0000000000000000e+00 2.4845038219902530e-02 6.9030852008746771e-02  0.0000000000000000e+00 1.9253457831428825e-01 8.3943689538940481e-03  0.0000000000