<?xml version="1.0"?>
<VTKFile type="UnstructuredGrid"  version="0.1"  >
<UnstructuredGrid>
<Piece  NumberOfPoints="4940" NumberOfCells="9650">
<Points>
<DataArray  type="Float64"  NumberOfComponents="3"  format="ascii">500 250 0  0 250 0  250 500 0  250 0 0  256.8885856082646 499.9050767557906 0  263.7719401218049 499.6203791065173 0  270.6448364229772 499.1461232471188 0  277.5020553257866 498.4826693209355 0  284.3383895508592 497.6305211460281 0  291.1486476865662 496.5903258312597 0  297.9276581259182 495.3628732847843 0  304.6702729675493 493.9490956196674 0  311.3713719748657 492.3500664368026 0  318.0258664141369 490.5670000199653 0  324.6287029687753 488.6012504015818 0  331.1748675330201 486.4543103455647 0  337.6593890460416 484.1278102064655 0  344.0773432429536 481.6235166997244 0  350.4238564271474 478.9433315480048 0  356.694109139292 476.0892900492477 0  362.88333985546 473.0635595140469 0  368.9868485575419 469.8684376402048 0  375.0000003153078 466.5063507640667 0  380.9182288257928 462.9798520074548 0  386.7370398729688 459.2916193419558 0  392.4520147244077 455.444453565817 0  398.0588135356345 451.4412761437442 0  403.5531785622926 447.285127045646 0  408.9309374414144 442.9791624087773 0  414.1880064015299 438.5266521049243 0  419.3203932989752 433.9309773069245 0  424.324200661095 429.1956279150535 0  429.1956286596235 424.3241998957182 0  433.9309780058756 419.3203925397119 0  438.5266527445345 414.1880056671062 0  442.9791630130591 408.9309367076756 0  447.2851276060475 403.5531778422888 0  451.4412766621026 398.0588128303826 0  455.4444540361634 392.4520140460735 0  459.2916197786263 386.7370392045948 0  462.9798524073514 380.9182281752347 0  466.5063511234856 374.9999996927758 0  469.8684379657123 368.9868479560565 0  473.0635598144817 362.8833392617846 0  476.0892903190255 356.6941085676214 0  478.9433317963513 350.4238558609745 0  481.6235169154735 344.0773427117675 0  484.12781039012 337.6593885555221 0  486.4543105028062 331.1748670749914 0  488.601250531677 324.6287025528375 0  490.5670001317469 318.0258660188321 0  492.3500665291326 311.3713716102628 0  493.949095695951 304.6702726271575 0  495.3628733416623 297.9276578347343 0  496.5903258712341 291.1486474470129 0  497.6305211749058 284.3383893426084 0  498.4826693388848 277.502055163614 0  499.1461232580606 270.6448362909296 0  499.6203791109319 263.7719400417897 0  499.9050767571306 256.8885855596534 0  499.9050767559877 243.1114143988867 0  499.6203791069493 236.2280598860241 0  499.1461232485393 229.3551635941651 0  498.4826693235677 222.4979446979962 0  497.6305211491849 215.6616104719064 0  496.5903258357701 208.8513523404629 0  495.3628732906988 202.0723419043604 0  493.9490956264813 195.3297270628552 0  492.3500664487791 188.6286280724281 0  490.5670000344809 181.9741336371959 0  488.6012504175981 175.3712970824318 0  486.4543103623226 168.8251325157939 0  484.1278102222298 162.3406109960628 0  481.6235167152198 155.9226567951971 0  478.9433315621651 149.5761436051346 0  476.0892900516498 143.3058908657982 0  473.063559513628 137.1166601437124 0  469.8684376406648 131.0131514433083 0  466.5063507675389 124.9999996907064 0  462.9798520124137 119.0817711822745 0  459.2916193464549 113.2629601339176 0  455.4444535642773 107.5479852733717 0  451.4412761528674 101.9411864767781 0  447.2851270583545 96.44682145403524 0  442.9791624165781 91.06906256805769 0  438.5266521117469 85.81199360630404 0  433.9309773156125 80.67960671046254 0  429.1956279150353 75.67579933888632 0  424.3241998888952 70.80437133373906 0  419.3203925223282 66.06902197812161 0  414.1880056411937 61.47334723289828 0  408.9309366751728 57.0208369601728 0  403.5531778009394 52.71487236176898 0  398.058812796452 48.55872331295853 0  392.4520140187753 44.55554594490843 0  386.7370391799677 40.70838020528396 0  380.9182281475119 37.02014757560744 0  374.9999996718656 33.49364886444181 0  368.9868479340393 30.13156202237255 0  362.8833392380029 26.93644017348339 0  356.6941085456942 23.91070967062674 0  350.4238558420009 21.0566681953261 0  344.0773426899492 18.37648307566465 0  337.6593885328982 15.87218960140942 0  331.1748670549786 13.54568949032341 0  324.6287025315056 11.39874946165088 0  318.0258660010876 9.432999863235466 0  311.3713716017894 7.649933468721599 0  304.6702726190621 6.050904302234756 0  297.9276578269805 4.637126656823085 0  291.148647441857 3.409674127905504 0  284.3383893425031 2.369478825079682 0  277.502055159398 1.517330660648639 0  270.6448362875833 0.853876741662134 0  263.7719400401456 0.3796208889774277 0  256.8885855592052 0.09492324285704967 0  243.1114143979462 0.09492324403817065 0  236.2280598850882 0.3796208931023841 0  229.3551635938215 0.8538767514891958 0  222.4979446968584 1.517330676558146 0  215.6616104703111 2.369478851036291 0  208.8513523382973 3.409674164591252 0  202.0723419066374 4.637126708856528 0  195.3297270659513 6.050904372824903 0  188.628628074828 7.649933550613184 0  181.9741336377093 9.432999965373938 0  175.3712970793675 11.39874958336037 0  168.8251325057572 13.54568964112298 0  162.340610986655 15.87218978129263 0  155.9226567874317 18.37648328793418 0  149.576143602509 21.05666843898663 0  143.3058908718157 23.91070994551046 0  137.1166601505524 26.93644048291054 0  131.0131514451933 30.13156235831508 0  124.9999996848412 33.49364923584736 0  119.0817711715717 37.0201479941652 0  113.2629601211624 40.70838066187849 0  107.5479852622251 44.55554644345162 0  101.9411864693332 48.55872385260452 0  96.44682143286516 52.71487295812284 0  91.06906254351222 57.02083760363669 0  85.81199358272519 61.4733479087879 0  80.67960667988106 66.06902271253972 0  75.67579930062769 70.80437212218331 0  70.80437129287643 75.67580015310926 0  66.06902193673014 80.67960752263491 0  61.47334718684866 85.81199441168215 0  57.02083692524275 91.0690633672404 0  52.71487232786438 96.44682224262129 0  48.55872328070024 101.941187247437 0  44.55554591578033 107.5479860232332 0  40.7083801742321 113.2629608675606 0  37.02014754791168 119.0817718975441 0  33.49364883372994 125.000000381329 0  30.13156199866361 131.0131521097709 0  26.9364401549829 137.1166607985551 0  23.91070965524918 143.3058914868915 0  21.05666818346614 149.576144185037 0  18.37648306853811 155.9226573275967 0  15.8721895918909 162.3406114925245 0  13.54568948170046 168.8251329701392 0  11.39874945301878 175.3712974960928 0  9.432999857087736 181.9741340206533 0  7.649933466342702 188.6286284076045 0  6.050904301250966 195.3297273853278 0  4.637126656808988 202.0723421730917 0  3.409674127767772 208.8513525589684 0  2.369478824521138 215.6616106615248 0  1.517330660909465 222.4979448382452 0  0.8538767414496533 229.355163714981 0  0.3796208887135322 236.2280599646376 0  0.09492324266324204 243.1114144478261 0  0.0949232442452228 256.8885856095658 0  0.3796208935834784 263.7719401236316 0  0.8538767530323526 270.6448364248016 0  1.517330679476544 277.5020553295092 0  2.369478854618649 284.3383895555228 0  3.409674170191892 291.1486476952655 0  4.6371267162381 297.9276581311522 0  6.050904381420935 304.6702729724059 0  7.649933562385399 311.3713719716595 0  9.43299997979841 318.0258664133013 0  11.3987495994252 324.6287029719946 0  13.54568965885832 331.174867545904 0  15.87218979367188 337.6593890464085 0  18.37648329843151 344.0773432384132 0  21.05666844777872 350.423856417535 0  23.91070995156048 356.6941091410045 0  26.93644048988043 362.8833398632205 0  30.13156235982007 368.9868485575877 0  33.49364924138357 375.0000003247478 0  37.0201480006036 380.9182288389023 0  40.70838066758398 386.7370398875706 0  44.55554644477201 392.4520147396792 0  48.55872386086904 398.0588135419111 0  52.71487295981296 403.5531785693063 0  57.02083760525949 408.9309374584583 0  61.47334790862246 414.1880064170849 0  66.06902271205095 419.320393319588 0  70.80437211216579 424.3242006890749 0  75.67580013809859 429.195628692521 0  80.6796075127923 433.930978054209 0  85.81199439754931 438.5266528008431 0  91.06906334717917 442.9791630582355 0  96.44682221438322 447.2851276501571 0  101.9411872243843 451.441276702356 0  107.5479859945825 455.4444540643537 0  113.2629608446994 459.2916198108319 0  119.0817718768376 462.9798524393601 0  125.0000003647644 466.5063511567065 0  131.0131521012763 469.8684379967393 0  137.1166607840049 473.0635598376539 0  143.3058914748804 476.0892903390826 0  149.5761441732679 478.9433318113714 0  155.9226573130112 481.6235169255377 0  162.3406114779862 484.1278104026658 0  168.8251329570439 486.4543105138039 0  175.3712974805475 488.601250542119 0  181.9741340135204 490.5670001408953 0  188.6286284005059 492.3500665318597 0  195.3297273788229 493.9490956972913 0  202.0723421640089 495.3628733414168 0  208.8513525529672 496.5903258712308 0  215.6616106544547 497.6305211744985 0  222.4979448327038 498.4826693384772 0  229.3551637102845 499.1461232581612 0  236.2280599621369 499.6203791111485 0  243.1114144470173 499.9050767573145 0  155.2373389820306 474.8197567317462 0  25.36256300907667 153.9152755065208 0  432.3709625126712 412.6214396304305 0  6.013151705810699 246.637913163471 0  246.6379131630491 493.986848294322 0  338.6995838441862 22.68244767887072 0  477.3175523131281 338.6995838660569 0  493.9868482700757 246.6379131399102 0  246.6201155078769 6.218451882810491 0  417.6179310263282 72.7156044707053 0  102.2232990934413 445.0100869616822 0  63.66330858966404 92.20354579482142 0  391.3105220491464 50.73522820883105 0  72.79295043967942 418.0702734974704 0  448.290574428537 108.25674339002 0  402.4604651193511 440.7462829841712 0  97.55317348421397 59.11376320116034 0  136.7376477664901 33.58246472647134 0  363.3288394375288 465.6947312928271 0  44.0678766556007 381.0860953771871 0  469.6905266180034 142.3890690100806 0  22.68244791668644 338.6995843487432 0  338.699584349159 477.317552078365 0  173.389488083762 18.6681884918202 0  483.4809734778481 179.7121987795732 0  13.50237455842738 306.4709525540879 0  305.9825168523021 487.24416992
[...]
<PointData  Vectors="f_12"> 
<DataArray  type="Float64"  Name="f_12"  NumberOfComponents="3" format="ascii">0.0000000000000000e+00 7.6597396020702979e-01 4.2630480092412415e-01  0.0000000000000000e+00 8.7724283744488085e-01 2.3040384888885349e-01  0.0000000000000000e+00 1.3039412779766099e-01 9.9150302320312367e-01  0.0000000000000000e+00 9.4865172138797826e-01 6.7084921944718115e-02  0.0000000000000000e+00 1.2829439207734394e-01 9.8975473669518810e-01  0.0000000000000000e+00 1.2702830483794381e-01 9.8865368486072247e-01  0.0000000000000000e+00 1.2633134966633403e-01 9.8803603982599286e-01  0.0000000000000000e+00 1.2635292982678942e-01 9.8805843741342092e-01  0.0000000000000000e+00 1.2700663671267573e-01 9.8863579216571451e-01  0.0000000000000000e+00 1.2830611142327258e-01 9.8976203925674311e-01  0.0000000000000000e+00 1.3026190156627077e-01 9.9139703039092308e-01  0.0000000000000000e+00 1.3286489798994361e-01 9.9347178237090317e-01  0.0000000000000000e+00 1.3614842358587179e-01 9.9592901380610033e-01  0.0000000000000000e+00 1.4016309645437786e-01 9.9869337892502286e-01  0.0000000000000000e+00 1.4504390153416954e-01 1.0017264892620805e+00  0.0000000000000000e+00 1.5032907468630030e-01 1.0046438824999533e+00  0.0000000000000000e+00 1.5669921887987076e-01 1.0076470152095154e+00  0.0000000000000000e+00 1.6343460950210092e-01 1.0102792120154318e+00  0.0000000000000000e+00 1.7077454189466956e-01 1.0125654675606102e+00  0.0000000000000000e+00 1.7857003748790154e-01 1.0143651897363271e+00  0.0000000000000000e+00 1.8669705385777366e-01 1.0156102182283826e+00  0.0000000000000000e+00 1.9531065329445052e-01 1.0162736702064741e+00  0.0000000000000000e+00 2.0433113771551892e-01 1.0163242265463082e+00  0.0000000000000000e+00 2.1374991233053292e-01 1.0156965516952781e+00  0.0000000000000000e+00 2.2388792329975551e-01 1.0143176482786549e+00  0.0000000000000000e+00 2.3504158599561001e-01 1.0120111490644532e+00  0.0000000000000000e+00 2.4735391398408668e-01 1.0085876792807666e+00  0.0000000000000000e+00 2.6052617856692611e-01 1.0039811598753676e+00  0.0000000000000000e+00 2.7457235997856949e-01 9.9807663417756365e-01  0.0000000000000000e+00 2.8937901050497961e-01 9.9082049353001722e-01  0.0000000000000000e+00 3.0421328640320944e-01 9.8258207489551774e-01  0.0000000000000000e+00 3.1904903151573338e-01 9.7341799278019370e-01  0.0000000000000000e+00 3.3383809031139577e-01 9.6345530104125665e-01  0.0000000000000000e+00 3.4878901023381198e-01 9.5256946508740281e-01  0.0000000000000000e+00 3.6448960703990901e-01 9.4031244758669874e-01  0.0000000000000000e+00 3.8095686369130277e-01 9.2662269515625839e-01  0.0000000000000000e+00 3.9811567995305852e-01 9.1147342301143430e-01  0.0000000000000000e+00 4.1582870604320454e-01 8.9494072715482498e-01  0.0000000000000000e+00 4.3353480664233618e-01 8.7755859170527828e-01  0.0000000000000000e+00 4.5067071615045412e-01 8.5995834503556190e-01  0.0000000000000000e+00 4.6734479231523546e-01 8.4212689396391871e-01  0.0000000000000000e+00 4.8416858003505742e-01 8.2346279416599588e-01  0.0000000000000000e+00 5.0143516577499747e-01 8.0362907558349972e-01  0.0000000000000000e+00 5.1897900485798865e-01 7.8280237292392485e-01  0.0000000000000000e+00 5.3659136482113456e-01 7.6122202434724051e-01  0.0000000000000000e+00 5.5379208100904842e-01 7.3952263630037374e-01  0.0000000000000000e+00 5.7028705530876211e-01 7.1814531994425634e-01  0.0000000000000000e+00 5.8623002916246503e-01 6.9698004872321206e-01  0.0000000000000000e+00 6.0224561060710091e-01 6.7521441626864609e-01  0.0000000000000000e+00 6.1828658250174584e-01 6.5293810164324784e-01  0.0000000000000000e+00 6.3418338797270435e-01 6.3038894982363591e-01  0.0000000000000000e+00 6.4952262962151430e-01 6.0819260123984331e-01  0.0000000000000000e+00 6.6412011561566098e-01 5.8668123300018349e-01  0.0000000000000000e+00 6.7816623110340102e-01 5.6562376522989755e-01  0.0000000000000000e+00 6.9191303570548024e-01 5.4468322073621223e-01  0.0000000000000000e+00 7.0548618461917523e-01 5.2368920222497017e-01  0.0000000000000000e+00 7.1882317246030170e-01 5.0275060002654492e-01  0.0000000000000000e+00 7.3160211656446095e-01 4.8240826526309560e-01  0.0000000000000000e+00 7.4361367006418089e-01 4.6302824184138719e-01  0.0000000000000000e+00 7.5479067396245481e-01 4.4479843662834923e-01  0.0000000000000000e+00 7.7691859871629665e-01 4.0802744654340728e-01  0.0000000000000000e+00 7.8742570109069787e-01 3.9029144777101771e-01  0.0000000000000000e+00 7.9716658887072978e-01 3.7367539660656807e-01  0.0000000000000000e+00 8.0642604409020624e-01 3.5772349859097652e-01  0.0000000000000000e+00 8.1527752257095543e-01 3.4233873591549330e-01  0.0000000000000000e+00 8.2393099389028190e-01 3.2716167842951271e-01  0.0000000000000000e+00 8.3224087187190687e-01 3.1245992991785365e-01  0.0000000000000000e+00 8.4003716781684012e-01 2.9854601689052396e-01  0.0000000000000000e+00 8.4730233879820660e-01 2.8547146000317164e-01  0.0000000000000000e+00 8.5415553309011982e-01 2.7303802916481551e-01  0.0000000000000000e+00 8.6078703185063576e-01 2.6091164990381382e-01  0.0000000000000000e+00 8.6716810125362420e-01 2.4915154690583488e-01  0.0000000000000000e+00 8.7322806273622600e-01 2.3789307206746912e-01  0.0000000000000000e+00 8.7882466548807037e-01 2.2740695042907433e-01  0.0000000000000000e+00 8.8400942345650835e-01 2.1760997945533617e-01  0.0000000000000000e+00 8.8891158618257327e-01 2.0826859587021923e-01  0.0000000000000000e+00 8.9364404095208172e-01 1.9917479262327112e-01  0.0000000000000000e+00 8.9817772820957731e-01 1.9038471911567814e-01  0.0000000000000000e+00 9.0241497673778592e-01 1.8208830767413373e-01  0.0000000000000000e+00 9.0630034389454528e-01 1.7439942125122912e-01  0.0000000000000000e+00 9.0988558552218879e-01 1.6722440042074191e-01  0.0000000000000000e+00 9.1322720237542365e-01 1.6045704134132782e-01  0.0000000000000000e+00 9.1645045227268174e-01 1.5385331243690795e-01  0.0000000000000000e+00 9.1951648320315948e-01 1.4749066418240986e-01  0.0000000000000000e+00 9.2237509176074528e-01 1.4147071768500483e-01  0.0000000000000000e+00 9.2496521460361958e-01 1.3592334566651079e-01  0.0000000000000000e+00 9.2729282436499949e-01 1.3084453606219265e-01  0.0000000000000000e+00 9.2942523705199276e-01 1.2610110969159818e-01  0.0000000000000000e+00 9.3143451070777794e-01 1.2154570400169491e-01  0.0000000000000000e+00 9.3335265128228750e-01 1.1710600325396642e-01  0.0000000000000000e+00 9.3515664531548626e-01 1.1283188370816262e-01  0.0000000000000000e+00 9.3680452906368350e-01 1.0881961087898806e-01  0.0000000000000000e+00 9.3827048829443138e-01 1.0513438170664578e-01  0.0000000000000000e+00 9.3954523941138912e-01 1.0181665481331487e-01  0.0000000000000000e+00 9.4065671696601361e-01 9.8815707117759180e-02  0.0000000000000000e+00 9.4168093694490917e-01 9.5951533026790214e-02  0.0000000000000000e+00 9.4263120469580031e-01 9.3195203217573255e-02  0.0000000000000000e+00 9.4349522049751355e-01 9.0581652218480385e-02  0.0000000000000000e+00 9.4430549961244159e-01 8.8021352604051500e-02  0.0000000000000000e+00 9.4504397250650662e-01 8.5569960696250905e-02  0.0000000000000000e+00 9.4566078313173607e-01 8.3385757707027330e-02  0.0000000000000000e+00 9.4618247701734814e-01 8.1401999446980428e-02  0.0000000000000000e+00 9.4661397251866752e-01 7.9637911070999559e-02  0.0000000000000000e+00 9.4697423767446853e-01 7.8051847170517510e-02  0.0000000000000000e+00 9.4727402892491686e-01 7.6626737372939721e-02  0.0000000000000000e+00 9.4752871679897843e-01 7.5322485606374126e-02  0.0000000000000000e+00 9.4774532733917394e-01 7.4126678836121299e-02  0.0000000000000000e+00 9.4792977557526947e-01 7.3028244098509790e-02  0.0000000000000000e+00 9.4809037238816707e-01 7.1998274767799519e-02  0.0000000000000000e+00 9.4822925132072433e-01 7.1038149487791441e-02  0.0000000000000000e+00 9.4834390868896190e-01 7.0174638737657322e-02  0.0000000000000000e+00 9.4843487342646327e-01 6.9414107355302929e-02  0.0000000000000000e+00 9.4850385280363148e-01 6.8763454550544792e-02  0.0000000000000000e+00 9.4856030978738237e-01 6.8185741112804898e-02  0.0000000000000000e+00 9.4860177893303710e-01 6.7719809863246549e-02  0.0000000000000000e+00 9.4863323234664498e-01 6.7344836565508784e-02  0.0000000000000000e+00 9.4865606970667049e-01 6.6969738449973296e-02  0.0000000000000000e+00 9.4868523905338986e-01 6.6706769717742545e-02  0.0000000000000000e+00 9.4866882755014548e-01 6.6829401451017637e-02  0.0000000000000000e+00 9.4866174839248396e-01 6.6929644368507887e-02  0.0000000000000000e+00 9.4864978360978214e-01 6.7104999550158667e-02  0.0000000000000000e+00 9.4862721061146460e-01 6.7389432817754474e-02  0.0000000000000000e+00 9.4859317776716889e-01 6.7780072999759799e-02  0.0000000000000000e+00 9.4855242403329831e-01 6.8233234769255413e-02  0.0000000000000000e+00 9.4849795204082799e-01 6.8780775429562471e-02  0.0000000000000000e+00 9.4844863069439422e-01 6.9296357173377496e-02  0.0000000000000000e+00 9.4835521758130359e-01 7.0061561257249966e-02  0.0000000000000000e+00 9.4825233959875976e-01 7.0847971545547214e-02  0.0000000000000000e+00 9.4813394322944067e-01 7.1691514084215868e-02  0.0000000000000000e+00 9.4800704740475772e-01 7.2551856717448515e-02  0.0000000000000000e+00 9.4785673108661617e-01 7.3490114014311311e-02  0.0000000000000000e+00 9.4767554310796942e-01 7.4529995032972987e-02  0.0000000000000000e+00 9.4747834027474498e-01 7.5598837714288672e-02  0.0000000000000000e+00 9.4725762781436851e-01 7.6727345199444325e-02  0.0000000000000000e+00 9.4700605721122144e-01 7.7933582600315479e-02  0.0000000000000000e+00 9.4671338079141376e-01 7.9245379303021668e-02  0.0000000000000000e+00 9.4636567607129896e-01 8.0698819515779910e-02  0.0000000000000000e+00 9.4595880607770932e-01 8.2297316159897077e-02  0.0000000000000000e+00 9.4549398889720937e-01 8.4020204530316889e-02  0.0000000000000000e+00 9.4496471632018952e-01 8.5875557254808346e-02  0.0000000000000000e+00 9.4437089061395552e-01 8.7855018280271452e-02  0.0000000000000000e+00 9.4372243184781957e-01 8.9922769443172956e-02  0.0000000000000000e+00 9.4302903268685756e-01 9.2049649307830148e-02  0.0000000000000000e+00 9.4230189555180721e-01 9.4205586069802061e-02  0.0000000000000000e+00 9.4154203482550947e-01 9.6391001092931278e-02  0.0000000000000000e+00 9.4074347928689128e-01 9.8623329383537892e-02  0.0000000000000000e+00 9.3988979411489737e-01 1.0094484187258218e-01  0.0000000000000000e+00 9.3896315502902894e-01 1.0339742230473804e-01  0.0000000000000000e+00 9.3793240181267645e-01 1.0605024623062240e-01  0.0000000000000000e+00 9.3677857637785700e-01 1.0893815531662748e-01  0.0000000000000000e+00 9.3549395417270620e-01 1.1207408908308351e-01  0.0000000000000000e+00 9.3411090772105498e-01 1.1537531224556029e-01  0.0000000000000000e+00 9.3265947787965853e-01 1.1877288287419271e-01  0.0000000000000000e+00 9.3117055187637998e-01 1.2220043220338384e-01  0.0000000000000000e+00 9.2964835103544996e-01 1.2565126575990360e-01  0.0000000000000000e+00 9.2807759676132096e-01 1.2916094237869508e-01  0.0000000000000000e+00 9.2637394812915153e-01 1.3291082122629191e-01  0.0000000000000000e+00 9.2452817268936993e-01 1.3691592014380055e-01  0.0000000000000000e+00 9.2252790668204898e-01 1.4119523051025776e-01  0.0000000000000000e+00 9.2031722763966983e-01 1.4586209176838236e-01  0.0000000000000000e+00 9.1793279624458679e-01 1.5083359398245041e-01  0.0000000000000000e+00 9.1544478769938087e-01 1.5596499259206636e-01  0.0000000000000000e+00 9.1295774872220159e-01 1.6104799242171733e-01  0.0000000000000000e+00 9.1031312223101546e-01 1.6640195168253316e-01  0.0000000000000000e+00 9.0757404370945127e-01 1.7189872290437072e-01  0.0000000000000000e+00 9.0459785414776128e-01 1.7781823096511168e-01  0.0000000000000000e+00 9.0135188386932696e-01 1.8421406002219240e-01  0.0000000000000000e+00 8.9778949318882784e-01 1.9117421775548446e-01  0.0000000000000000e+00 8.9399215522777831e-01 1.9853369438877902e-01  0.0000000000000000e+00 8.9006541782705217e-01 2.0608738921563627e-01  0.0000000000000000e+00 8.8603773820672849e-01 2.1378168433114550e-01  0.0000000000000000e+00 8.8181440160939017e-01 2.2179382951637858e-01  0.0000000000000000e+00 8.7223289280077221e-01 2.3977014139907155e-01  0.0000000000000000e+00 8.6680911745752609e-01 2.4983552648040100e-01  0.0000000000000000e+00 8.6108476663035116e-01 2.6038285503942526e-01  0.0000000000000000e+00 8.5516253193244807e-01 2.7121902859116226e-01  0.0000000000000000e+00 8.4900092723790377e-01 2.8241434603076221e-01  0.0000000000000000e+00 8.4241294400465183e-01 2.9429623852482112e-01  0.0000000000000000e+00 8.3523557502588719e-01 3.0714121291270235e-01  0.0000000000000000e+00 8.2745283365605593e-01 3.2095670933266524e-01  0.0000000000000000e+00 8.1921311705054867e-01 3.3546190262442604e-01  0.0000000000000000e+00 8.1064320425199177e-01 3.5041913118088558e-01  0.0000000000000000e+00 8.0169978609554693e-01 3.6589196881731334e-01  0.0000000000000000e+00 7.9217159385339753e-01 3.8222137060824524e-01  0.0000000000000000e+00 7.8188636664286759e-01 3.9967168590589480e-01  0.0000000000000000e+00 7.7085742346662844e-01 4.1818307119028081e-01  0.0000000000000000e+00 7.5936132403727408e-01 4.3726076342664727e-01  0.0000000000000000e+00 7.4741126531623536e-01 4.5685565768897274e-01  0.0000000000000000e+00 7.3481786728339815e-01 4.7724777376683414e-01  0.0000000000000000e+00 7.2140693968199388e-01 4.9866268832547572e-01  0.0000000000000000e+00 7.0707584244436261e-01 5.2121630719974676e-01  0.0000000000000000e+00 6.9213918748982761e-01 5.4434133380706973e-01  0.0000000000000000e+00 6.7674992827801139e-01 5.6776843323808324e-01  0.0000000000000000e+00 6.6079126830215573e-01 5.9162704028638302e-01  0.0000000000000000e+00 6.4392730010210397e-01 6.1634553200613384e-01  0.0000000000000000e+00 6.2607800780618683e-01 6.4195279111940950e-01  0.0000000000000000e+00 6.0761231148832529e-01 6.6782326117037516e-01  0.0000000000000000e+00 5.8889712045533515e-01 6.9339174281402860e-01  0.0000000000000000e+00 5.6978992233503156e-01 7.1881037379243284e-01  0.0000000000000000e+00 5.5004566068802863e-01 7.4430979055751656e-01  0.0000000000000000e+00 5.2937020201090079e-01 7.7016328582957516e-01  0.0000000000000000e+00 5.0829175035626384e-01 7.9558371286760976e-01  0.0000000000000000e+00 4.8729935323534113e-01 8.1993455652868752e-01  0.0000000000000000e+00 4.6650111281901946e-01 8.4306352842348964e-01  0.0000000000000000e+00 4.4561049429307692e-01 8.6525344937498461e-01  0.0000000000000000e+00 4.2425810053248303e-01 8.8678998626494387e-01  0.0000000000000000e+00 4.0256510662400641e-01 9.0742362948086408e-01  0.0000000000000000e+00 3.8132989874168816e-01 9.2631965314617637e-01  0.0000000000000000e+00 3.6100042501973006e-01 9.4313101574998826e-01  0.0000000000000000e+00 3.4142671846212358e-01 9.5804556942621288e-01  0.0000000000000000e+00 3.2251906327493784e-01 9.7117967601975708e-01  0.0000000000000000e+00 3.0389541529506220e-01 9.8278836304606909e-01  0.0000000000000000e+00 2.8544336458309116e-01 9.9287733712830983e-01  0.0000000000000000e+00 2.6763399234384677e-01 1.0011339459853603e+00  0.0000000000000000e+00 2.5089433568756658e-01 1.0074721558198307e+00  0.0000000000000000e+00 2.3578797293829415e-01 1.0118413215962550e+00  0.0000000000000000e+00 2.2212839847762503e-01 1.0146243857109400e+00  0.0000000000000000e+00 2.0982990373411628e-01 1.0160537780169276e+00  0.0000000000000000e+00 1.9861533550648539e-01 1.0163778266038961e+00  0.0000000000000000e+00 1.8819162113079763e-01 1.0157700567689163e+00  0.0000000000000000e+00 1.7849695420457456e-01 1.0143625392636741e+00  0.0000000000000000e+00 1.6945836474307807e-01 1.0121983544847326e+00  0.0000000000000000e+00 1.6106144504821254e-01 1.0094157855462764e+00  0.0000000000000000e+00 1.5360186119470143e-01 1.0062432745925294e+00  0.0000000000000000e+00 1.4712201979331016e-01 1.0029234589398945e+00  0.0000000000000000e+00 1.4158574761237794e-01 9.9960844329102239e-01  0.0000000000000000e+00 1.3699079148635096e-01 9.9653175516721237e-01  0.0000000000000000e+00 1.3334151426149313e-01 9.9383530009504184e-01  0.0000000000000000e+00 2.6013179831873029e-01 1.0041550910588086e+00  0.0000000000000000e+00 9.2360622926551350e-01 1.3888558000456422e-01  0.0000000000000000e+00 3.5885537220480584e-01 9.4483260627808952e-01  0.0000000000000000e+00 8.7921851092094161e-01 2.2668792590106002e-01  0.0000000000000000e+00 1.3313552201418460e-01 9.9368676252313304e-01  0.0000000000000000e+00 9.4666320453212960e-01 7.9346933282063450e-02  0.0000000000000000e+00 5.7913439356488872e-01 7.0646343875619932e-01  0.0000000000000000e+00 7.7168491200487432e-01 4.1680905870539331e-01  0.0000000000000000e+00 9.4857307079506969e-01 6.7604062510703167e-02  0.0000000000000000e+00 9.3225409621340238e-01 1.1965083108494762e-01  0.0000000000000000e+00 4.3642338472502434e-01 8.7465632627205747e-01  0.0000000000000000e+00 9.3921870395062224e-01 1.0270081938338407e-01  0.0000000000000000e+00 9.4008396397324689e-01 1.0035570947921500e-01  0.0000000000000000e+00 5.5977926401989531e-01 7.3183728022052852e-01  0.0000000000000000e+00 9.1476892602288651e-01 1.5730514724111058e-01  0.0000000000000000e+00 2.6838461488831827e-01 1.0008286516084082e+00  0.0000000000000000e+00 9.4452560459088586e-01 8.7299112965616904e-02  0.0000000000000000e+00 9.4725517695574313e-01 7.6638552177843489e-02  0.0000000000000000e+00 1.9279042637402433e-01 1.0161795406292666e+00  0.0000000000000000e+00 6.8354714474988887e-01 5.5746622459664252e-01  0.0000000000000000e+00 8.9135988347203443e-01 2.0357209227443820e-01  0.0000000000000000e+00 7.7631140327467618e-01 4.0905999946566662e-01  0.0000000000000000e+00 1.6131013270392500e-01 1.0095131524180931e+00  0.0000000000000000e+00 9.4819150544254149e-01 7.1101613391312782e-02  0.0000000000000000e+00 8.5822953334803298e-01 2.6559880476283088e-01  0.0000000000000000e+00 8.2296420690812322e-01 3.2887243397138355e-01  0.0000000000000000e+00 1.3560956718619444e-01 9.9553553438660536e-01  0.0000000000000000e+00 1.8436066068944310e-01 1.0153441183412115e+00  0.0000000000000000e+00 9.0865555879004012e-01 1.6972751508107942e-01  0.0000000000000000e+00 9.4806003099193947e-01 7.2042973555961579e-02  0.0000000000000000e+00 6.7173012629779583e-01 5.7531692087070019e-01  0.0000000000000000e+00 4.5709444117722392e-01 8.5317157476394789e-01  0.0000000000000000e+00 9.4853479663134666e-01 6.8118989534236909e-02  0.0000000000000000e+00 8.2880476415538640e-01 3.1855321579261675e-01  0.0000000000000000e+00 8.5178879518641659e-01 2.7735703046626348e-01  0.0000000000000000e+00 1.2791013205297269e-01 9.8942211356657761e-01  0.0000000000000000e+00 9.4373635929128308e-01 8.9798258217009347e-02  0.0000000000000000e+00 9.3168258936586767e-01 1.2101425316837429e-01  0.0000000000000000e+00 1.5148217968194905e-01 1.0052282490382651e+00  0.0000000000000000e+00 3.3339579742529674e-01 9.6382339246841775e-01  0.0000000000000000e+00 8.9510111240755941e-01 1.9638591047103518e-01  0.0000000000000000e+00 9.4843742654988139e-01 6.9087523416267921e-02  0.0000000000000000e+00 7.2425418472703729e-01 4.9413548024368248e-01  0.0000000000000000e+00 2.3145211339742974e-01 1.0128535128071445e+00  0.0000000000000000e+00 6.2700126349339591e-01 6.4063658789625044e-01  0.0000000000000000e+00 9.4859812634620844e-01 6.7374305845609286e-02  0.0000000000000000e+00 9.4753046489575077e-01 7.5209493080371170e-02  0.0000000000000000e+00 8.0213451184848172e-01 3.6513948045619765e-01  0.0000000000000000e+00 9.2609444526104945e-01 1.3346432246421436e-01  0.0000000000000000e+00 2.1680912737391556e-01 1.0153572336269452e+00  0.0000000000000000e+00 4.0881536525922291e-01 9.0161961858198103e-01  0.0000000000000000e+00 6.1614464843837302e-01 6.5595416009907559e-01  0.0000000000000000e+00 9.4600165126349145e-01 8.2057678240693752e-02  0.0000000000000000e+00 7.2730475666298533e-01 4.8928729774482149e-01  0.0000000000000000e+00 9.1638545721605502e-01 1.5402243936071100e-01  0.0000000000000000e+00 5.1120856900144807e-01 7.9210719576069133e-01  0.0000000000