<?xml version="1.0"?>
<VTKFile type="UnstructuredGrid"  version="0.1"  >
<UnstructuredGrid>
<Piece  NumberOfPoints="4940" NumberOfCells="9650">
<Points>
<DataArray  type="Float64"  NumberOfComponents="3"  format="ascii">500 250 0  0 250 0  250 500 0  250 0 0  256.8885856082646 499.9050767557906 0  263.7719401218049 499.6203791065173 0  270.6448364229772 499.1461232471188 0  277.5020553257866 498.4826693209355 0  284.3383895508592 497.6305211460281 0  291.1486476865662 496.5903258312597 0  297.9276581259182 495.3628732847843 0  304.6702729675493 493.9490956196674 0  311.3713719748657 492.3500664368026 0  318.0258664141369 490.5670000199653 0  324.6287029687753 488.6012504015818 0  331.1748675330201 486.4543103455647 0  337.6593890460416 484.1278102064655 0  344.0773432429536 481.6235166997244 0  350.4238564271474 478.9433315480048 0  356.694109139292 476.0892900492477 0  362.88333985546 473.0635595140469 0  368.9868485575419 469.8684376402048 0  375.0000003153078 466.5063507640667 0  380.9182288257928 462.9798520074548 0  386.7370398729688 459.2916193419558 0  392.4520147244077 455.444453565817 0  398.0588135356345 451.4412761437442 0  403.5531785622926 447.285127045646 0  408.9309374414144 442.9791624087773 0  414.1880064015299 438.5266521049243 0  419.3203932989752 433.9309773069245 0  424.324200661095 429.1956279150535 0  429.1956286596235 424.3241998957182 0  433.9309780058756 419.3203925397119 0  438.5266527445345 414.1880056671062 0  442.9791630130591 408.9309367076756 0  447.2851276060475 403.5531778422888 0  451.4412766621026 398.0588128303826 0  455.4444540361634 392.4520140460735 0  459.2916197786263 386.7370392045948 0  462.9798524073514 380.9182281752347 0  466.5063511234856 374.9999996927758 0  469.8684379657123 368.9868479560565 0  473.0635598144817 362.8833392617846 0  476.0892903190255 356.6941085676214 0  478.9433317963513 350.4238558609745 0  481.6235169154735 344.0773427117675 0  484.12781039012 337.6593885555221 0  486.4543105028062 331.1748670749914 0  488.601250531677 324.6287025528375 0  490.5670001317469 318.0258660188321 0  492.3500665291326 311.3713716102628 0  493.949095695951 304.6702726271575 0  495.3628733416623 297.9276578347343 0  496.5903258712341 291.1486474470129 0  497.6305211749058 284.3383893426084 0  498.4826693388848 277.502055163614 0  499.1461232580606 270.6448362909296 0  499.6203791109319 263.7719400417897 0  499.9050767571306 256.8885855596534 0  499.9050767559877 243.1114143988867 0  499.6203791069493 236.2280598860241 0  499.1461232485393 229.3551635941651 0  498.4826693235677 222.4979446979962 0  497.6305211491849 215.6616104719064 0  496.5903258357701 208.8513523404629 0  495.3628732906988 202.0723419043604 0  493.9490956264813 195.3297270628552 0  492.3500664487791 188.6286280724281 0  490.5670000344809 181.9741336371959 0  488.6012504175981 175.3712970824318 0  486.4543103623226 168.8251325157939 0  484.1278102222298 162.3406109960628 0  481.6235167152198 155.9226567951971 0  478.9433315621651 149.5761436051346 0  476.0892900516498 143.3058908657982 0  473.063559513628 137.1166601437124 0  469.8684376406648 131.0131514433083 0  466.5063507675389 124.9999996907064 0  462.9798520124137 119.0817711822745 0  459.2916193464549 113.2629601339176 0  455.4444535642773 107.5479852733717 0  451.4412761528674 101.9411864767781 0  447.2851270583545 96.44682145403524 0  442.9791624165781 91.06906256805769 0  438.5266521117469 85.81199360630404 0  433.9309773156125 80.67960671046254 0  429.1956279150353 75.67579933888632 0  424.3241998888952 70.80437133373906 0  419.3203925223282 66.06902197812161 0  414.1880056411937 61.47334723289828 0  408.9309366751728 57.0208369601728 0  403.5531778009394 52.71487236176898 0  398.058812796452 48.55872331295853 0  392.4520140187753 44.55554594490843 0  386.7370391799677 40.70838020528396 0  380.9182281475119 37.02014757560744 0  374.9999996718656 33.49364886444181 0  368.9868479340393 30.13156202237255 0  362.8833392380029 26.93644017348339 0  356.6941085456942 23.91070967062674 0  350.4238558420009 21.0566681953261 0  344.0773426899492 18.37648307566465 0  337.6593885328982 15.87218960140942 0  331.1748670549786 13.54568949032341 0  324.6287025315056 11.39874946165088 0  318.0258660010876 9.432999863235466 0  311.3713716017894 7.649933468721599 0  304.6702726190621 6.050904302234756 0  297.9276578269805 4.637126656823085 0  291.148647441857 3.409674127905504 0  284.3383893425031 2.369478825079682 0  277.502055159398 1.517330660648639 0  270.6448362875833 0.853876741662134 0  263.7719400401456 0.3796208889774277 0  256.8885855592052 0.09492324285704967 0  243.1114143979462 0.09492324403817065 0  236.2280598850882 0.3796208931023841 0  229.3551635938215 0.8538767514891958 0  222.4979446968584 1.517330676558146 0  215.6616104703111 2.369478851036291 0  208.8513523382973 3.409674164591252 0  202.0723419066374 4.637126708856528 0  195.3297270659513 6.050904372824903 0  188.628628074828 7.649933550613184 0  181.9741336377093 9.432999965373938 0  175.3712970793675 11.39874958336037 0  168.8251325057572 13.54568964112298 0  162.340610986655 15.87218978129263 0  155.9226567874317 18.37648328793418 0  149.576143602509 21.05666843898663 0  143.3058908718157 23.91070994551046 0  137.1166601505524 26.93644048291054 0  131.0131514451933 30.13156235831508 0  124.9999996848412 33.49364923584736 0  119.0817711715717 37.0201479941652 0  113.2629601211624 40.70838066187849 0  107.5479852622251 44.55554644345162 0  101.9411864693332 48.55872385260452 0  96.44682143286516 52.71487295812284 0  91.06906254351222 57.02083760363669 0  85.81199358272519 61.4733479087879 0  80.67960667988106 66.06902271253972 0  75.67579930062769 70.80437212218331 0  70.80437129287643 75.67580015310926 0  66.06902193673014 80.67960752263491 0  61.47334718684866 85.81199441168215 0  57.02083692524275 91.0690633672404 0  52.71487232786438 96.44682224262129 0  48.55872328070024 101.941187247437 0  44.55554591578033 107.5479860232332 0  40.7083801742321 113.2629608675606 0  37.02014754791168 119.0817718975441 0  33.49364883372994 125.000000381329 0  30.13156199866361 131.0131521097709 0  26.9364401549829 137.1166607985551 0  23.91070965524918 143.3058914868915 0  21.05666818346614 149.576144185037 0  18.37648306853811 155.9226573275967 0  15.8721895918909 162.3406114925245 0  13.54568948170046 168.8251329701392 0  11.39874945301878 175.3712974960928 0  9.432999857087736 181.9741340206533 0  7.649933466342702 188.6286284076045 0  6.050904301250966 195.3297273853278 0  4.637126656808988 202.0723421730917 0  3.409674127767772 208.8513525589684 0  2.369478824521138 215.6616106615248 0  1.517330660909465 222.4979448382452 0  0.8538767414496533 229.355163714981 0  0.3796208887135322 236.2280599646376 0  0.09492324266324204 243.1114144478261 0  0.0949232442452228 256.8885856095658 0  0.3796208935834784 263.7719401236316 0  0.8538767530323526 270.6448364248016 0  1.517330679476544 277.5020553295092 0  2.369478854618649 284.3383895555228 0  3.409674170191892 291.1486476952655 0  4.6371267162381 297.9276581311522 0  6.050904381420935 304.6702729724059 0  7.649933562385399 311.3713719716595 0  9.43299997979841 318.0258664133013 0  11.3987495994252 324.6287029719946 0  13.54568965885832 331.174867545904 0  15.87218979367188 337.6593890464085 0  18.37648329843151 344.0773432384132 0  21.05666844777872 350.423856417535 0  23.91070995156048 356.6941091410045 0  26.93644048988043 362.8833398632205 0  30.13156235982007 368.9868485575877 0  33.49364924138357 375.0000003247478 0  37.0201480006036 380.9182288389023 0  40.70838066758398 386.7370398875706 0  44.55554644477201 392.4520147396792 0  48.55872386086904 398.0588135419111 0  52.71487295981296 403.5531785693063 0  57.02083760525949 408.9309374584583 0  61.47334790862246 414.1880064170849 0  66.06902271205095 419.320393319588 0  70.80437211216579 424.3242006890749 0  75.67580013809859 429.195628692521 0  80.6796075127923 433.930978054209 0  85.81199439754931 438.5266528008431 0  91.06906334717917 442.9791630582355 0  96.44682221438322 447.2851276501571 0  101.9411872243843 451.441276702356 0  107.5479859945825 455.4444540643537 0  113.2629608446994 459.2916198108319 0  119.0817718768376 462.9798524393601 0  125.0000003647644 466.5063511567065 0  131.0131521012763 469.8684379967393 0  137.1166607840049 473.0635598376539 0  143.3058914748804 476.0892903390826 0  149.5761441732679 478.9433318113714 0  155.9226573130112 481.6235169255377 0  162.3406114779862 484.1278104026658 0  168.8251329570439 486.4543105138039 0  175.3712974805475 488.601250542119 0  181.9741340135204 490.5670001408953 0  188.6286284005059 492.3500665318597 0  195.3297273788229 493.9490956972913 0  202.0723421640089 495.3628733414168 0  208.8513525529672 496.5903258712308 0  215.6616106544547 497.6305211744985 0  222.4979448327038 498.4826693384772 0  229.3551637102845 499.1461232581612 0  236.2280599621369 499.6203791111485 0  243.1114144470173 499.9050767573145 0  155.2373389820306 474.8197567317462 0  25.36256300907667 153.9152755065208 0  432.3709625126712 412.6214396304305 0  6.013151705810699 246.637913163471 0  246.6379131630491 493.986848294322 0  338.6995838441862 22.68244767887072 0  477.3175523131281 338.6995838660569 0  493.9868482700757 246.6379131399102 0  246.6201155078769 6.218451882810491 0  417.6179310263282 72.7156044707053 0  102.2232990934413 445.0100869616822 0  63.66330858966404 92.20354579482142 0  391.3105220491464 50.73522820883105 0  72.79295043967942 418.0702734974704 0  448.290574428537 108.25674339002 0  402.4604651193511 440.7462829841712 0  97.55317348421397 59.11376320116034 0  136.7376477664901 33.58246472647134 0  363.3288394375288 465.6947312928271 0  44.0678766556007 381.0860953771871 0  469.6905266180034 142.3890690100806 0  22.68244791668644 338.6995843487432 0  338.699584349159 477.317552078365 0  173.389488083762 18.6681884918202 0  483.4809734778481 179.7121987795732 0  13.50237455842738 306.4709525540879 0  305.9825168523021 487.24416992
[...]
<PointData  Vectors="f_12"> 
<DataArray  type="Float64"  Name="f_12"  NumberOfComponents="3" format="ascii">0.0000000000000000e+00 8.9692393833738204e-01 1.9277465369256550e-01  0.0000000000000000e+00 9.3983149845469316e-01 1.0096263423636612e-01  0.0000000000000000e+00 4.9176154050686849e-01 8.1478172460808418e-01  0.0000000000000000e+00 9.1456547332200178e-01 2.9928004477947516e-02  0.0000000000000000e+00 4.8914223162005122e-01 8.1777894897040049e-01  0.0000000000000000e+00 4.8766706340766514e-01 8.1945459178590263e-01  0.0000000000000000e+00 4.8674552808887050e-01 8.2049954251268642e-01  0.0000000000000000e+00 4.8681250060273185e-01 8.2042604868454772e-01  0.0000000000000000e+00 4.8766418668538986e-01 8.1945854230344184e-01  0.0000000000000000e+00 4.8933797522137512e-01 8.1755283600415296e-01  0.0000000000000000e+00 4.9179121318430113e-01 8.1474738594392260e-01  0.0000000000000000e+00 4.9492587030838253e-01 8.1114339163173910e-01  0.0000000000000000e+00 4.9875795248334992e-01 8.0670890159530950e-01  0.0000000000000000e+00 5.0331671922028853e-01 8.0138718827117694e-01  0.0000000000000000e+00 5.0889137627190129e-01 7.9481812864625867e-01  0.0000000000000000e+00 5.1439476566332054e-01 7.8827256453872030e-01  0.0000000000000000e+00 5.2134111768125246e-01 7.7990747035666341e-01  0.0000000000000000e+00 5.2819145402959222e-01 7.7155765526003151e-01  0.0000000000000000e+00 5.3560954489485013e-01 7.6240750693581139e-01  0.0000000000000000e+00 5.4340361202653320e-01 7.5266767825358472e-01  0.0000000000000000e+00 5.5138622513561708e-01 7.4256014913366863e-01  0.0000000000000000e+00 5.5982195216127917e-01 7.3173673804279227e-01  0.0000000000000000e+00 5.6851595081660855e-01 7.2044009198356396e-01  0.0000000000000000e+00 5.7722548568142584e-01 7.0896722558218528e-01  0.0000000000000000e+00 5.8630103014540924e-01 6.9685784145027174e-01  0.0000000000000000e+00 5.9589155470345656e-01 6.8388420502875369e-01  0.0000000000000000e+00 6.0603741246094234e-01 6.6997129248047116e-01  0.0000000000000000e+00 6.1614213418703068e-01 6.5592352826642164e-01  0.0000000000000000e+00 6.2640799143901815e-01 6.4145562143965973e-01  0.0000000000000000e+00 6.3701672771070295e-01 6.2630109796083278e-01  0.0000000000000000e+00 6.4732346155196496e-01 6.1138543177046167e-01  0.0000000000000000e+00 6.5758473731491640e-01 5.9633955575167974e-01  0.0000000000000000e+00 6.6781031114009792e-01 5.8116654454750305e-01  0.0000000000000000e+00 6.7797690484973505e-01 5.6589581410643097e-01  0.0000000000000000e+00 6.8848691498396575e-01 5.4991619804635494e-01  0.0000000000000000e+00 6.9906541756902363e-01 5.3364626878369104e-01  0.0000000000000000e+00 7.0951584496730424e-01 5.1738227535863845e-01  0.0000000000000000e+00 7.1993172896431767e-01 5.0098416027256865e-01  0.0000000000000000e+00 7.3014912710097224e-01 4.8472029235867031e-01  0.0000000000000000e+00 7.3995350258648762e-01 4.6894736425553346e-01  0.0000000000000000e+00 7.4948410091652573e-01 4.5345840211581545e-01  0.0000000000000000e+00 7.5911532898338641e-01 4.3765010183997077e-01  0.0000000000000000e+00 7.6882343027340649e-01 4.2155909042206885e-01  0.0000000000000000e+00 7.7824449055140899e-01 4.0579162604823016e-01  0.0000000000000000e+00 7.8736478368020202e-01 3.9038206690466382e-01  0.0000000000000000e+00 7.9614261594335833e-01 3.7541625802384293e-01  0.0000000000000000e+00 8.0458985933541105e-01 3.6088674578424168e-01  0.0000000000000000e+00 8.1280126127619245e-01 3.4664486244068171e-01  0.0000000000000000e+00 8.2102465781579237e-01 3.3225962991319719e-01  0.0000000000000000e+00 8.2899141400432641e-01 3.1821013613444488e-01  0.0000000000000000e+00 8.3657052596138293e-01 3.0473110050770080e-01  0.0000000000000000e+00 8.4376853082660075e-01 2.9182674048415774e-01  0.0000000000000000e+00 8.5064999233087146e-01 2.7939117397685809e-01  0.0000000000000000e+00 8.5738926273701010e-01 2.6711720776060255e-01  0.0000000000000000e+00 8.6392866041578908e-01 2.5511335076253527e-01  0.0000000000000000e+00 8.7015588279851674e-01 2.4358908929735096e-01  0.0000000000000000e+00 8.7606842712898259e-01 2.3255466161145646e-01  0.0000000000000000e+00 8.8166630209343444e-01 2.2201860839524312e-01  0.0000000000000000e+00 8.8700756666603164e-01 2.1187870199256201e-01  0.0000000000000000e+00 8.9199426278908078e-01 2.0232944280307938e-01  0.0000000000000000e+00 9.0161255176439459e-01 1.8362197345862102e-01  0.0000000000000000e+00 9.0595569290863198e-01 1.7503706430244428e-01  0.0000000000000000e+00 9.0994467793467659e-01 1.6704730463857045e-01  0.0000000000000000e+00 9.1380338247548543e-01 1.5922299652582123e-01  0.0000000000000000e+00 9.1746206927245100e-01 1.5169627793969850e-01  0.0000000000000000e+00 9.2092624746604257e-01 1.4445885229309147e-01  0.0000000000000000e+00 9.2410517549001658e-01 1.3768574596374863e-01  0.0000000000000000e+00 9.2702451200783109e-01 1.3133024790423445e-01  0.0000000000000000e+00 9.2974783512750292e-01 1.2526293672646632e-01  0.0000000000000000e+00 9.3230086325689943e-01 1.1942646379165676e-01  0.0000000000000000e+00 9.3468517010885710e-01 1.1381327923864959e-01  0.0000000000000000e+00 9.3683983669080573e-01 1.0855266555112164e-01  0.0000000000000000e+00 9.3877493101254716e-01 1.0362195042602024e-01  0.0000000000000000e+00 9.4050548261572775e-01 9.8987068184405447e-02  0.0000000000000000e+00 9.4207303538672182e-01 9.4551809942216722e-02  0.0000000000000000e+00 9.4348343713288896e-01 9.0294989455529481e-02  0.0000000000000000e+00 9.4472419035194177e-01 8.6244597698947406e-02  0.0000000000000000e+00 9.4576990461732835e-01 8.2462035772867329e-02  0.0000000000000000e+00 9.4662368827047272e-01 7.8944804807308047e-02  0.0000000000000000e+00 9.4730947505033114e-01 7.5632716761904209e-02  0.0000000000000000e+00 9.4784891753259815e-01 7.2452674235640016e-02  0.0000000000000000e+00 9.4823232957581804e-01 6.9428576776255940e-02  0.0000000000000000e+00 9.4846444515224249e-01 6.6544731807910637e-02  0.0000000000000000e+00 9.4853552472589986e-01 6.3862388540296910e-02  0.0000000000000000e+00 9.4845038414904403e-01 6.1375198507797518e-02  0.0000000000000000e+00 9.4822018323447155e-01 5.9057322057659109e-02  0.0000000000000000e+00 9.4785364577998621e-01 5.6865896197884284e-02  0.0000000000000000e+00 9.4735418194785603e-01 5.4767763698617099e-02  0.0000000000000000e+00 9.4672623705521897e-01 5.2760056310580929e-02  0.0000000000000000e+00 9.4596973400855489e-01 5.0863822677685980e-02  0.0000000000000000e+00 9.4509814277493354e-01 4.9104453349701822e-02  0.0000000000000000e+00 9.4412626872499084e-01 4.7484356204202674e-02  0.0000000000000000e+00 9.4305825680885547e-01 4.5981038536667872e-02  0.0000000000000000e+00 9.4191212155554349e-01 4.4584620932447971e-02  0.0000000000000000e+00 9.4069284416273580e-01 4.3278487047532961e-02  0.0000000000000000e+00 9.3937009729475207e-01 4.2009974998560018e-02  0.0000000000000000e+00 9.3796753629821039e-01 4.0802307600018857e-02  0.0000000000000000e+00 9.3652747623919663e-01 3.9693472808928182e-02  0.0000000000000000e+00 9.3502311930288340e-01 3.8643407668805946e-02  0.0000000000000000e+00 9.3348433810822096e-01 3.7662933307800600e-02  0.0000000000000000e+00 9.3198876704609956e-01 3.6799656348770353e-02  0.0000000000000000e+00 9.3049108750956433e-01 3.6005393844169210e-02  0.0000000000000000e+00 9.2902052279046643e-01 3.5279467782719072e-02  0.0000000000000000e+00 9.2756688439364821e-01 3.4605702678130484e-02  0.0000000000000000e+00 9.2614246306020220e-01 3.3983588286828410e-02  0.0000000000000000e+00 9.2474525746701097e-01 3.3404958719024901e-02  0.0000000000000000e+00 9.2339340434508299e-01 3.2872413224065769e-02  0.0000000000000000e+00 9.2210213618489967e-01 3.2386717766332139e-02  0.0000000000000000e+00 9.2085898375081365e-01 3.1937806979896413e-02  0.0000000000000000e+00 9.1967803817070315e-01 3.1526591991935637e-02  0.0000000000000000e+00 9.1859843354560788e-01 3.1164071842316895e-02  0.0000000000000000e+00 9.1763149553026313e-01 3.0851956335385122e-02  0.0000000000000000e+00 9.1679015594192181e-01 3.0590666830814624e-02  0.0000000000000000e+00 9.1603593527848859e-01 3.0361234160973742e-02  0.0000000000000000e+00 9.1542044297293401e-01 3.0177551113102941e-02  0.0000000000000000e+00 9.1492085561003123e-01 3.0029722031706115e-02  0.0000000000000000e+00 9.1440017105405380e-01 2.9884423000515626e-02  0.0000000000000000e+00 9.1406947668719063e-01 2.9779078468369250e-02  0.0000000000000000e+00 9.1422117550948889e-01 2.9830341998268884e-02  0.0000000000000000e+00 9.1436206035442724e-01 2.9870750451086111e-02  0.0000000000000000e+00 9.1460772899834919e-01 2.9940721615863048e-02  0.0000000000000000e+00 9.1499648886007012e-01 3.0054537391434502e-02  0.0000000000000000e+00 9.1552151892015265e-01 3.0211041517017864e-02  0.0000000000000000e+00 9.1612962122435260e-01 3.0393300145391242e-02  0.0000000000000000e+00 9.1685321314300927e-01 3.0615435685633418e-02  0.0000000000000000e+00 9.1754416837709263e-01 3.0824459761376280e-02  0.0000000000000000e+00 9.1852213367129765e-01 3.1143373405530136e-02  0.0000000000000000e+00 9.1951804517188584e-01 3.1476800366612656e-02  0.0000000000000000e+00 9.2057483375846649e-01 3.1840794059171784e-02  0.0000000000000000e+00 9.2164465363413994e-01 3.2217837345369045e-02  0.0000000000000000e+00 9.2278291506972809e-01 3.2636492332583485e-02  0.0000000000000000e+00 9.2399957860547910e-01 3.3106271809495345e-02  0.0000000000000000e+00 9.2521145238283919e-01 3.3591917016978300e-02  0.0000000000000000e+00 9.2643757580299602e-01 3.4103589194678846e-02  0.0000000000000000e+00 9.2767294358038832e-01 3.4644247001266379e-02  0.0000000000000000e+00 9.2892081531332804e-01 3.5220262002968551e-02  0.0000000000000000e+00 9.3018861984675005e-01 3.5841679888749534e-02  0.0000000000000000e+00 9.3146920371992825e-01 3.6508107945083752e-02  0.0000000000000000e+00 9.3273864272482543e-01 3.7212284682920919e-02  0.0000000000000000e+00 9.3400047919022977e-01 3.7964040763934809e-02  0.0000000000000000e+00 9.3525445145968589e-01 3.8770583859202991e-02  0.0000000000000000e+00 9.3648676082047011e-01 3.9629809309974076e-02  0.0000000000000000e+00 9.3768691847194985e-01 4.0539968992510417e-02  0.0000000000000000e+00 9.3883944739233072e-01 4.1492341703489970e-02  0.0000000000000000e+00 9.3993700291062021e-01 4.2481974839833299e-02  0.0000000000000000e+00 9.4097263134393527e-01 4.3502831137617437e-02  0.0000000000000000e+00 9.4194569439510900e-01 4.4554584962363419e-02  0.0000000000000000e+00 9.4285560329846385e-01 4.5637165909169233e-02  0.0000000000000000e+00 9.4370915698133240e-01 4.6769225300431240e-02  0.0000000000000000e+00 9.4450619700825789e-01 4.7967454679780107e-02  0.0000000000000000e+00 9.4525359067579873e-01 4.9254555508009612e-02  0.0000000000000000e+00 9.4593665098980972e-01 5.0623268219868373e-02  0.0000000000000000e+00 9.4654914053708250e-01 5.2071089894151067e-02  0.0000000000000000e+00 9.4708501676126533e-01 5.3582055774343544e-02  0.0000000000000000e+00 9.4754019424287439e-01 5.5145313395756651e-02  0.0000000000000000e+00 9.4791392134764985e-01 5.6747459209419690e-02  0.0000000000000000e+00 9.4821179220918761e-01 5.8427859065181470e-02  0.0000000000000000e+00 9.4843113115954836e-01 6.0163729613550848e-02  0.0000000000000000e+00 9.4856789896036697e-01 6.1957252331654430e-02  0.0000000000000000e+00 9.4862024896732289e-01 6.3886350481832416e-02  0.0000000000000000e+00 9.4857540540715568e-01 6.5968067858607149e-02  0.0000000000000000e+00 9.4842959409960503e-01 6.8186144249590006e-02  0.0000000000000000e+00 9.4819669986063704e-01 7.0455365729773095e-02  0.0000000000000000e+00 9.4785560413939729e-01 7.2894339212201967e-02  0.0000000000000000e+00 9.4743412181813169e-01 7.5365472210941684e-02  0.0000000000000000e+00 9.4691968875044963e-01 7.7942938405641191e-02  0.0000000000000000e+00 9.4630005299173459e-01 8.0636870110258552e-02  0.0000000000000000e+00 9.4555156829094777e-01 8.3547072744273976e-02  0.0000000000000000e+00 9.4465885593659737e-01 8.6689680615358283e-02  0.0000000000000000e+00 9.4362861825775834e-01 9.0032878238070269e-02  0.0000000000000000e+00 9.4247894383831265e-01 9.3529344664600680e-02  0.0000000000000000e+00 9.4121685215351913e-01 9.7163896608197062e-02  0.0000000000000000e+00 9.3830230698053063e-01 1.0497609092139387e-01  0.0000000000000000e+00 9.3659527687384869e-01 1.0927681538778197e-01  0.0000000000000000e+00 9.3468733182607933e-01 1.1390885368166251e-01  0.0000000000000000e+00 9.3259302787772702e-01 1.1883997474274967e-01  0.0000000000000000e+00 9.3033626374515532e-01 1.2401436123644055e-01  0.0000000000000000e+00 9.2792377426805051e-01 1.2941804642129154e-01  0.0000000000000000e+00 9.2532919395324487e-01 1.3510538695071805e-01  0.0000000000000000e+00 9.2249467468893209e-01 1.4119350655253740e-01  0.0000000000000000e+00 9.1937933059014687e-01 1.4776001221311533e-01  0.0000000000000000e+00 9.1599035956997554e-01 1.5478505584935703e-01  0.0000000000000000e+00 9.1238071984182245e-01 1.6216017547635331e-01  0.0000000000000000e+00 9.0857435888299865e-01 1.6983882585535531e-01  0.0000000000000000e+00 9.0451630283064433e-01 1.7792382161444420e-01  0.0000000000000000e+00 9.0010060198063835e-01 1.8661628266988206e-01  0.0000000000000000e+00 8.9533088883299827e-01 1.9590217523005771e-01  0.0000000000000000e+00 8.9021885597626238e-01 2.0575189526864548e-01  0.0000000000000000e+00 8.8483354014862936e-01 2.1603135013340008e-01  0.0000000000000000e+00 8.7918181656827610e-01 2.2672132353898714e-01  0.0000000000000000e+00 8.7309985128534673e-01 2.3811988506995932e-01  0.0000000000000000e+00 8.6656225199908632e-01 2.5026206125370648e-01  0.0000000000000000e+00 8.5958462055892537e-01 2.6310718639706254e-01  0.0000000000000000e+00 8.5229297748928057e-01 2.7641578913025966e-01  0.0000000000000000e+00 8.4467949455614144e-01 2.9019275954810203e-01  0.0000000000000000e+00 8.3658664072564359e-01 3.0470820180684394e-01  0.0000000000000000e+00 8.2794116579327171e-01 3.2007289505600794e-01  0.0000000000000000e+00 8.1879137356789466e-01 3.3618130685009379e-01  0.0000000000000000e+00 8.0927282142717982e-01 3.5278233746837762e-01  0.0000000000000000e+00 7.9949126276218763e-01 3.6967399580751470e-01  0.0000000000000000e+00 7.8920218529477126e-01 3.8726327866218363e-01  0.0000000000000000e+00 7.7838309138927531e-01 4.0556028914513820e-01  0.0000000000000000e+00 7.6706374973520919e-01 4.2449092569761576e-01  0.0000000000000000e+00 7.5541107243409111e-01 4.4375204335826518e-01  0.0000000000000000e+00 7.4356896667593819e-01 4.6309294819985303e-01  0.0000000000000000e+00 7.3139900423074033e-01 4.8272198314441839e-01  0.0000000000000000e+00 7.1872438447746478e-01 5.0289779205603746e-01  0.0000000000000000e+00 7.0576903769144428e-01 5.2323801565305494e-01  0.0000000000000000e+00 6.9263432643469414e-01 5.4356505447911541e-01  0.0000000000000000e+00 6.7933771176508417e-01 5.6384002870063998e-01  0.0000000000000000e+00 6.6622839377064791e-01 5.8352967803012590e-01  0.0000000000000000e+00 6.5313766067540402e-01 6.0288824728865698e-01  0.0000000000000000e+00 6.3985967155161594e-01 6.2221154052091476e-01  0.0000000000000000e+00 6.2656245902237762e-01 6.4124018200591970e-01  0.0000000000000000e+00 6.1328926006698570e-01 6.5991474177193821e-01  0.0000000000000000e+00 6.0061193590464212e-01 6.7743830510879499e-01  0.0000000000000000e+00 5.8828919683171710e-01 6.9418635340400059e-01  0.0000000000000000e+00 5.7662402320739337e-01 7.0977003932552674e-01  0.0000000000000000e+00 5.6559556920200260e-01 7.2425141319412289e-01  0.0000000000000000e+00 5.5506747638098530e-01 7.3785372850938979e-01  0.0000000000000000e+00 5.4515077707987381e-01 7.5047014423372693e-01  0.0000000000000000e+00 5.3572497630299720e-01 7.6226281713120736e-01  0.0000000000000000e+00 5.2672632152413812e-01 7.7335240075326261e-01  0.0000000000000000e+00 5.1861871359050316e-01 7.8319493992716493e-01  0.0000000000000000e+00 5.1144536915286720e-01 7.9179006356322268e-01  0.0000000000000000e+00 5.0513585272647732e-01 7.9924902607607262e-01  0.0000000000000000e+00 4.9977680065388380e-01 8.0552364918356623e-01  0.0000000000000000e+00 4.9545776846974382e-01 8.1052835565608172e-01  0.0000000000000000e+00 6.2180771940467872e-01 6.4796764147713892e-01  0.0000000000000000e+00 9.4848789480554641e-01 6.1003471647442485e-02  0.0000000000000000e+00 6.8561840462840129e-01 5.5430478664001348e-01  0.0000000000000000e+00 9.4041494261899117e-01 9.9366220134723349e-02  0.0000000000000000e+00 4.9682718845166701e-01 8.0894987647212957e-01  0.0000000000000000e+00 9.2869841298621647e-01 3.5159618946651774e-02  0.0000000000000000e+00 8.0964243846639228e-01 3.5213688836558515e-01  0.0000000000000000e+00 8.9953802438363051e-01 1.8769223677416097e-01  0.0000000000000000e+00 9.1516701532726352e-01 3.0142007935005460e-02  0.0000000000000000e+00 9.4641050368739599e-01 5.1964786815347254e-02  0.0000000000000000e+00 7.3880509460169230e-01 4.7080448394936325e-01  0.0000000000000000e+00 9.4256876632361342e-01 4.5331317409369853e-02  0.0000000000000000e+00 9.4132048499252163e-01 4.3966031912411767e-02  0.0000000000000000e+00 8.0459255939478325e-01 3.6088556028389895e-01  0.0000000000000000e+00 9.4835464879532438e-01 6.8052273117254480e-02  0.0000000000000000e+00 6.2309229888495710e-01 6.4615602521362026e-01  0.0000000000000000e+00 9.3486572256160549e-01 3.8550713989393276e-02  0.0000000000000000e+00 9.2625417408943200e-01 3.4058559897658026e-02  0.0000000000000000e+00 5.5884814831109608e-01 7.3301239351791925e-01  0.0000000000000000e+00 8.6278052052762011e-01 2.5723590984338929e-01  0.0000000000000000e+00 9.4414435127260199e-01 8.8174780905178385e-02  0.0000000000000000e+00 9.0231029571480570e-01 1.8227950423185202e-01  0.0000000000000000e+00 5.2757492390752669e-01 7.7232031799911827e-01  0.0000000000000000e+00 9.1976105709750711e-01 3.1595253846605963e-02  0.0000000000000000e+00 9.3381013204179741e-01 1.1589315105784820e-01  0.0000000000000000e+00 9.2079579196450179e-01 1.4478241420581450e-01  0.0000000000000000e+00 4.9996223923532829e-01 8.0530842261591684e-01  0.0000000000000000e+00 5.5264889436593445e-01 7.4096030639022081e-01  0.0000000000000000e+00 9.4759250124323025e-01 7.4410772398562683e-02  0.0000000000000000e+00 9.2085094808705870e-01 3.1969642537364680e-02  0.0000000000000000e+00 8.5461038769849540e-01 2.7219016498559334e-01  0.0000000000000000e+00 7.4426259781729043e-01 4.6196252960778256e-01  0.0000000000000000e+00 9.1589717977423024e-01 3.0353492860294515e-02  0.0000000000000000e+00 9.2286214415241341e-01 1.4034936950443733e-01  0.0000000000000000e+00 9.3134550076837885e-01 1.2170737231903049e-01  0.0000000000000000e+00 4.9043049522032128e-01 8.1630637501696679e-01  0.0000000000000000e+00 9.3605610187040578e-01 3.9386393928821997e-02  0.0000000000000000e+00 9.4688793091350865e-01 5.3066267332525868e-02  0.0000000000000000e+00 5.1787425071189463e-01 7.8409703637776829e-01  0.0000000000000000e+00 6.7470438177037295e-01 5.7084578210031933e-01  0.0000000000000000e+00 9.4491055429473614e-01 8.5796859120777891e-02  0.0000000000000000e+00 9.1713371404669164e-01 3.0735502393670053e-02  0.0000000000000000e+00 8.7866114939153983e-01 2.2768420523938041e-01  0.0000000000000000e+00 5.9464845637787367e-01 6.8558142126138077e-01  0.0000000000000000e+00 8.3363303327956906e-01 3.0996852223039228e-01  0.0000000000000000e+00 9.1488414112998107e-01 3.0052227293481004e-02  0.0000000000000000e+00 9.2455272265910293e-01 3.3359237504982459e-02  0.0000000000000000e+00 9.1213495374613041e-01 1.6262062830699164e-01  0.0000000000000000e+00 9.4805154566455141e-01 5.8021891646333944e-02  0.0000000000000000e+00 5.8461604235938114e-01 6.9911545025533983e-01  0.0000000000000000e+00 7.1687825638206792e-01 5.0581837639634575e-01  0.0000000000000000e+00 8.3221331724357428e-01 3.1249921191884972e-01  0.0000000000000000e+00 9.3120828417776835e-01 3.6405311721643047e-02  0.0000000000000000e+00 8.8170615820440101e-01 2.2195917874760884e-01  0.0000000000000000e+00 9.4847745703357433e-01 6.7359016740456273e-02  0.0000000000000000e+00 7.7474064181997826e-01 4.1167334449697107e-01  0.0000000000