<?xml version="1.0"?>
<VTKFile type="UnstructuredGrid"  version="0.1"  >
<UnstructuredGrid>
<Piece  NumberOfPoints="4940" NumberOfCells="9650">
<Points>
<DataArray  type="Float64"  NumberOfComponents="3"  format="ascii">500 250 0  0 250 0  250 500 0  250 0 0  256.8885856082646 499.9050767557906 0  263.7719401218049 499.6203791065173 0  270.6448364229772 499.1461232471188 0  277.5020553257866 498.4826693209355 0  284.3383895508592 497.6305211460281 0  291.1486476865662 496.5903258312597 0  297.9276581259182 495.3628732847843 0  304.6702729675493 493.9490956196674 0  311.3713719748657 492.3500664368026 0  318.0258664141369 490.5670000199653 0  324.6287029687753 488.6012504015818 0  331.1748675330201 486.4543103455647 0  337.6593890460416 484.1278102064655 0  344.0773432429536 481.6235166997244 0  350.4238564271474 478.9433315480048 0  356.694109139292 476.0892900492477 0  362.88333985546 473.0635595140469 0  368.9868485575419 469.8684376402048 0  375.0000003153078 466.5063507640667 0  380.9182288257928 462.9798520074548 0  386.7370398729688 459.2916193419558 0  392.4520147244077 455.444453565817 0  398.0588135356345 451.4412761437442 0  403.5531785622926 447.285127045646 0  408.9309374414144 442.9791624087773 0  414.1880064015299 438.5266521049243 0  419.3203932989752 433.9309773069245 0  424.324200661095 429.1956279150535 0  429.1956286596235 424.3241998957182 0  433.9309780058756 419.3203925397119 0  438.5266527445345 414.1880056671062 0  442.9791630130591 408.9309367076756 0  447.2851276060475 403.5531778422888 0  451.4412766621026 398.0588128303826 0  455.4444540361634 392.4520140460735 0  459.2916197786263 386.7370392045948 0  462.9798524073514 380.9182281752347 0  466.5063511234856 374.9999996927758 0  469.8684379657123 368.9868479560565 0  473.0635598144817 362.8833392617846 0  476.0892903190255 356.6941085676214 0  478.9433317963513 350.4238558609745 0  481.6235169154735 344.0773427117675 0  484.12781039012 337.6593885555221 0  486.4543105028062 331.1748670749914 0  488.601250531677 324.6287025528375 0  490.5670001317469 318.0258660188321 0  492.3500665291326 311.3713716102628 0  493.949095695951 304.6702726271575 0  495.3628733416623 297.9276578347343 0  496.5903258712341 291.1486474470129 0  497.6305211749058 284.3383893426084 0  498.4826693388848 277.502055163614 0  499.1461232580606 270.6448362909296 0  499.6203791109319 263.7719400417897 0  499.9050767571306 256.8885855596534 0  499.9050767559877 243.1114143988867 0  499.6203791069493 236.2280598860241 0  499.1461232485393 229.3551635941651 0  498.4826693235677 222.4979446979962 0  497.6305211491849 215.6616104719064 0  496.5903258357701 208.8513523404629 0  495.3628732906988 202.0723419043604 0  493.9490956264813 195.3297270628552 0  492.3500664487791 188.6286280724281 0  490.5670000344809 181.9741336371959 0  488.6012504175981 175.3712970824318 0  486.4543103623226 168.8251325157939 0  484.1278102222298 162.3406109960628 0  481.6235167152198 155.9226567951971 0  478.9433315621651 149.5761436051346 0  476.0892900516498 143.3058908657982 0  473.063559513628 137.1166601437124 0  469.8684376406648 131.0131514433083 0  466.5063507675389 124.9999996907064 0  462.9798520124137 119.0817711822745 0  459.2916193464549 113.2629601339176 0  455.4444535642773 107.5479852733717 0  451.4412761528674 101.9411864767781 0  447.2851270583545 96.44682145403524 0  442.9791624165781 91.06906256805769 0  438.5266521117469 85.81199360630404 0  433.9309773156125 80.67960671046254 0  429.1956279150353 75.67579933888632 0  424.3241998888952 70.80437133373906 0  419.3203925223282 66.06902197812161 0  414.1880056411937 61.47334723289828 0  408.9309366751728 57.0208369601728 0  403.5531778009394 52.71487236176898 0  398.058812796452 48.55872331295853 0  392.4520140187753 44.55554594490843 0  386.7370391799677 40.70838020528396 0  380.9182281475119 37.02014757560744 0  374.9999996718656 33.49364886444181 0  368.9868479340393 30.13156202237255 0  362.8833392380029 26.93644017348339 0  356.6941085456942 23.91070967062674 0  350.4238558420009 21.0566681953261 0  344.0773426899492 18.37648307566465 0  337.6593885328982 15.87218960140942 0  331.1748670549786 13.54568949032341 0  324.6287025315056 11.39874946165088 0  318.0258660010876 9.432999863235466 0  311.3713716017894 7.649933468721599 0  304.6702726190621 6.050904302234756 0  297.9276578269805 4.637126656823085 0  291.148647441857 3.409674127905504 0  284.3383893425031 2.369478825079682 0  277.502055159398 1.517330660648639 0  270.6448362875833 0.853876741662134 0  263.7719400401456 0.3796208889774277 0  256.8885855592052 0.09492324285704967 0  243.1114143979462 0.09492324403817065 0  236.2280598850882 0.3796208931023841 0  229.3551635938215 0.8538767514891958 0  222.4979446968584 1.517330676558146 0  215.6616104703111 2.369478851036291 0  208.8513523382973 3.409674164591252 0  202.0723419066374 4.637126708856528 0  195.3297270659513 6.050904372824903 0  188.628628074828 7.649933550613184 0  181.9741336377093 9.432999965373938 0  175.3712970793675 11.39874958336037 0  168.8251325057572 13.54568964112298 0  162.340610986655 15.87218978129263 0  155.9226567874317 18.37648328793418 0  149.576143602509 21.05666843898663 0  143.3058908718157 23.91070994551046 0  137.1166601505524 26.93644048291054 0  131.0131514451933 30.13156235831508 0  124.9999996848412 33.49364923584736 0  119.0817711715717 37.0201479941652 0  113.2629601211624 40.70838066187849 0  107.5479852622251 44.55554644345162 0  101.9411864693332 48.55872385260452 0  96.44682143286516 52.71487295812284 0  91.06906254351222 57.02083760363669 0  85.81199358272519 61.4733479087879 0  80.67960667988106 66.06902271253972 0  75.67579930062769 70.80437212218331 0  70.80437129287643 75.67580015310926 0  66.06902193673014 80.67960752263491 0  61.47334718684866 85.81199441168215 0  57.02083692524275 91.0690633672404 0  52.71487232786438 96.44682224262129 0  48.55872328070024 101.941187247437 0  44.55554591578033 107.5479860232332 0  40.7083801742321 113.2629608675606 0  37.02014754791168 119.0817718975441 0  33.49364883372994 125.000000381329 0  30.13156199866361 131.0131521097709 0  26.9364401549829 137.1166607985551 0  23.91070965524918 143.3058914868915 0  21.05666818346614 149.576144185037 0  18.37648306853811 155.9226573275967 0  15.8721895918909 162.3406114925245 0  13.54568948170046 168.8251329701392 0  11.39874945301878 175.3712974960928 0  9.432999857087736 181.9741340206533 0  7.649933466342702 188.6286284076045 0  6.050904301250966 195.3297273853278 0  4.637126656808988 202.0723421730917 0  3.409674127767772 208.8513525589684 0  2.369478824521138 215.6616106615248 0  1.517330660909465 222.4979448382452 0  0.8538767414496533 229.355163714981 0  0.3796208887135322 236.2280599646376 0  0.09492324266324204 243.1114144478261 0  0.0949232442452228 256.8885856095658 0  0.3796208935834784 263.7719401236316 0  0.8538767530323526 270.6448364248016 0  1.517330679476544 277.5020553295092 0  2.369478854618649 284.3383895555228 0  3.409674170191892 291.1486476952655 0  4.6371267162381 297.9276581311522 0  6.050904381420935 304.6702729724059 0  7.649933562385399 311.3713719716595 0  9.43299997979841 318.0258664133013 0  11.3987495994252 324.6287029719946 0  13.54568965885832 331.174867545904 0  15.87218979367188 337.6593890464085 0  18.37648329843151 344.0773432384132 0  21.05666844777872 350.423856417535 0  23.91070995156048 356.6941091410045 0  26.93644048988043 362.8833398632205 0  30.13156235982007 368.9868485575877 0  33.49364924138357 375.0000003247478 0  37.0201480006036 380.9182288389023 0  40.70838066758398 386.7370398875706 0  44.55554644477201 392.4520147396792 0  48.55872386086904 398.0588135419111 0  52.71487295981296 403.5531785693063 0  57.02083760525949 408.9309374584583 0  61.47334790862246 414.1880064170849 0  66.06902271205095 419.320393319588 0  70.80437211216579 424.3242006890749 0  75.67580013809859 429.195628692521 0  80.6796075127923 433.930978054209 0  85.81199439754931 438.5266528008431 0  91.06906334717917 442.9791630582355 0  96.44682221438322 447.2851276501571 0  101.9411872243843 451.441276702356 0  107.5479859945825 455.4444540643537 0  113.2629608446994 459.2916198108319 0  119.0817718768376 462.9798524393601 0  125.0000003647644 466.5063511567065 0  131.0131521012763 469.8684379967393 0  137.1166607840049 473.0635598376539 0  143.3058914748804 476.0892903390826 0  149.5761441732679 478.9433318113714 0  155.9226573130112 481.6235169255377 0  162.3406114779862 484.1278104026658 0  168.8251329570439 486.4543105138039 0  175.3712974805475 488.601250542119 0  181.9741340135204 490.5670001408953 0  188.6286284005059 492.3500665318597 0  195.3297273788229 493.9490956972913 0  202.0723421640089 495.3628733414168 0  208.8513525529672 496.5903258712308 0  215.6616106544547 497.6305211744985 0  222.4979448327038 498.4826693384772 0  229.3551637102845 499.1461232581612 0  236.2280599621369 499.6203791111485 0  243.1114144470173 499.9050767573145 0  155.2373389820306 474.8197567317462 0  25.36256300907667 153.9152755065208 0  432.3709625126712 412.6214396304305 0  6.013151705810699 246.637913163471 0  246.6379131630491 493.986848294322 0  338.6995838441862 22.68244767887072 0  477.3175523131281 338.6995838660569 0  493.9868482700757 246.6379131399102 0  246.6201155078769 6.218451882810491 0  417.6179310263282 72.7156044707053 0  102.2232990934413 445.0100869616822 0  63.66330858966404 92.20354579482142 0  391.3105220491464 50.73522820883105 0  72.79295043967942 418.0702734974704 0  448.290574428537 108.25674339002 0  402.4604651193511 440.7462829841712 0  97.55317348421397 59.11376320116034 0  136.7376477664901 33.58246472647134 0  363.3288394375288 465.6947312928271 0  44.0678766556007 381.0860953771871 0  469.6905266180034 142.3890690100806 0  22.68244791668644 338.6995843487432 0  338.699584349159 477.317552078365 0  173.389488083762 18.6681884918202 0  483.4809734778481 179.7121987795732 0  13.50237455842738 306.4709525540879 0  305.9825168523021 487.24416992
[...]
<PointData  Vectors="f_12"> 
<DataArray  type="Float64"  Name="f_12"  NumberOfComponents="3" format="ascii">0.0000000000000000e+00 4.1036632082300906e-01 8.0441876268663847e-03  0.0000000000000000e+00 2.2020894451064571e-01 7.9830916584103483e-03  0.0000000000000000e+00 8.9271680974715084e-01 2.5365294915031051e-02  0.0000000000000000e+00 5.5447987364610068e-02 2.2654398537027463e-02  0.0000000000000000e+00 8.9349530220623152e-01 2.5499676992442034e-02  0.0000000000000000e+00 8.9395650496829249e-01 2.5580522095225416e-02  0.0000000000000000e+00 8.9421735765625165e-01 2.5626191354796449e-02  0.0000000000000000e+00 8.9420553232667688e-01 2.5624414285820012e-02  0.0000000000000000e+00 8.9396103613542621e-01 2.5581423651156891e-02  0.0000000000000000e+00 8.9347785359617760e-01 2.5496409062015342e-02  0.0000000000000000e+00 8.9275421002043687e-01 2.5370448553146498e-02  0.0000000000000000e+00 8.9179757365510293e-01 2.5206462657954801e-02  0.0000000000000000e+00 8.9059585210771397e-01 2.5004196191273396e-02  0.0000000000000000e+00 8.8912953925041460e-01 2.4763079827904572e-02  0.0000000000000000e+00 8.8733565607175879e-01 2.4476030397199696e-02  0.0000000000000000e+00 8.8542163063172719e-01 2.4177520164967652e-02  0.0000000000000000e+00 8.8306448321324738e-01 2.3824618926979867e-02  0.0000000000000000e+00 8.8057851719326630e-01 2.3467448472906511e-02  0.0000000000000000e+00 8.7783580347677936e-01 2.3089548865859125e-02  0.0000000000000000e+00 8.7488470103832250e-01 2.2700149760766987e-02  0.0000000000000000e+00 8.7176005268418044e-01 2.2308541420430091e-02  0.0000000000000000e+00 8.6837427965410707e-01 2.1908441764215615e-02  0.0000000000000000e+00 8.6476472884547950e-01 2.1503563359590076e-02  0.0000000000000000e+00 8.6094860431764675e-01 2.1097372198798404e-02  0.0000000000000000e+00 8.5677955001497708e-01 2.0676490109199148e-02  0.0000000000000000e+00 8.5212510253367291e-01 2.0231414312801090e-02  0.0000000000000000e+00 8.4691611588304994e-01 1.9757979667056131e-02  0.0000000000000000e+00 8.4129192277922760e-01 1.9274227181865531e-02  0.0000000000000000e+00 8.3519042438914326e-01 1.8780547313064080e-02  0.0000000000000000e+00 8.2858080523140543e-01 1.8278749940099114e-02  0.0000000000000000e+00 8.2176048492781684e-01 1.7796884441138552e-02  0.0000000000000000e+00 8.1465494211169232e-01 1.7332342613182949e-02  0.0000000000000000e+00 8.0726042993302316e-01 1.6883298291337612e-02  0.0000000000000000e+00 7.9947173238775593e-01 1.6441434439700413e-02  0.0000000000000000e+00 7.9095145015750445e-01 1.5989474977009522e-02  0.0000000000000000e+00 7.8172908073864411e-01 1.5529470339345470e-02  0.0000000000000000e+00 7.7184656805382978e-01 1.5064838012819277e-02  0.0000000000000000e+00 7.6129018366445766e-01 1.4602617896918564e-02  0.0000000000000000e+00 7.5029064870045636e-01 1.4158584890787073e-02  0.0000000000000000e+00 7.3912554554442866e-01 1.3743731913459352e-02  0.0000000000000000e+00 7.2767440208333956e-01 1.3351164401805300e-02  0.0000000000000000e+00 7.1549554211981081e-01 1.2961935973027430e-02  0.0000000000000000e+00 7.0241718497823502e-01 1.2567923922034614e-02  0.0000000000000000e+00 6.8865070270803075e-01 1.2180178024999508e-02  0.0000000000000000e+00 6.7432231992032865e-01 1.1804673639764682e-02  0.0000000000000000e+00 6.5973723823909347e-01 1.1450881841478138e-02  0.0000000000000000e+00 6.4500878795892713e-01 1.1123087377167476e-02  0.0000000000000000e+00 6.2998869366372590e-01 1.0815591239024012e-02  0.0000000000000000e+00 6.1412967922840411e-01 1.0509639163847511e-02  0.0000000000000000e+00 5.9767680570907966e-01 1.0209627871210590e-02  0.0000000000000000e+00 5.8086716893103463e-01 9.9247825681648468e-03  0.0000000000000000e+00 5.6405393995234543e-01 9.6612073985519100e-03  0.0000000000000000e+00 5.4734004071687048e-01 9.4228796028623402e-03  0.0000000000000000e+00 5.3042469962421190e-01 9.2001732355090713e-03  0.0000000000000000e+00 5.1316495802666495e-01 8.9870760168226978e-03  0.0000000000000000e+00 4.9564507196833235e-01 8.7854921009936724e-03  0.0000000000000000e+00 4.7802212780935427e-01 8.5970313981098469e-03  0.0000000000000000e+00 4.6070483722891054e-01 8.4298502971594646e-03  0.0000000000000000e+00 4.4375210283738015e-01 8.2776570549914861e-03  0.0000000000000000e+00 4.2733023290600225e-01 8.1547772234620529e-03  0.0000000000000000e+00 3.9353053448572178e-01 7.9273764336550787e-03  0.0000000000000000e+00 3.7714686838962069e-01 7.8363088508862280e-03  0.0000000000000000e+00 3.6155648312410305e-01 7.7712840566361348e-03  0.0000000000000000e+00 3.4623555075966128e-01 7.7160037035805531e-03  0.0000000000000000e+00 3.3122633165991383e-01 7.6806309600261965e-03  0.0000000000000000e+00 3.1632386484145936e-01 7.6514018655669805e-03  0.0000000000000000e+00 3.0194481222109598e-01 7.6418769542229556e-03  0.0000000000000000e+00 2.8826583786211946e-01 7.6501510258430820e-03  0.0000000000000000e+00 2.7523252949937793e-01 7.6767900208876624e-03  0.0000000000000000e+00 2.6262168935789432e-01 7.7202254342309600e-03  0.0000000000000000e+00 2.5023391571023984e-01 7.7760069005867148e-03  0.0000000000000000e+00 2.3831051429884964e-01 7.8488455852792870e-03  0.0000000000000000e+00 2.2696416782425149e-01 7.9385069453239126e-03  0.0000000000000000e+00 2.1635605993820731e-01 8.0466227255206156e-03  0.0000000000000000e+00 2.0630297770013703e-01 8.1720571452409494e-03  0.0000000000000000e+00 1.9660674336863121e-01 8.3157677336294089e-03  0.0000000000000000e+00 1.8718673493477736e-01 8.4762198826266663e-03  0.0000000000000000e+00 1.7819300017040091e-01 8.6552721077732108e-03  0.0000000000000000e+00 1.6978882058173403e-01 8.8522941686583860e-03  0.0000000000000000e+00 1.6198947476536565e-01 9.0662561231983890e-03  0.0000000000000000e+00 1.5462237967507100e-01 9.2980300040767204e-03  0.0000000000000000e+00 1.4760346572297409e-01 9.5500079446059170e-03  0.0000000000000000e+00 1.4078713551349104e-01 9.8244076520761017e-03  0.0000000000000000e+00 1.3432149116110154e-01 1.0117912153541301e-02  0.0000000000000000e+00 1.2829551268716644e-01 1.0428855186243889e-02  0.0000000000000000e+00 1.2276572586303484e-01 1.0753713932276194e-02  0.0000000000000000e+00 1.1765703224887843e-01 1.1092465766192428e-02  0.0000000000000000e+00 1.1283000515572925e-01 1.1449995850992444e-02  0.0000000000000000e+00 1.0818204028206997e-01 1.1828313283397561e-02  0.0000000000000000e+00 1.0370200829847601e-01 1.2232490624937366e-02  0.0000000000000000e+00 9.9466481907597673e-02 1.2655741950253112e-02  0.0000000000000000e+00 9.5556507651011396e-02 1.3090867901281620e-02  0.0000000000000000e+00 9.1988558050993444e-02 1.3533465537650249e-02  0.0000000000000000e+00 8.8757471315405984e-02 1.3975659362765302e-02  0.0000000000000000e+00 8.5799471256289617e-02 1.4419198807076476e-02  0.0000000000000000e+00 8.2953206096070306e-02 1.4880551743729363e-02  0.0000000000000000e+00 8.0218792219895793e-02 1.5360336591366486e-02  0.0000000000000000e+00 7.7652511900377558e-02 1.5848902519453315e-02  0.0000000000000000e+00 7.5182413239559778e-02 1.6355626973700903e-02  0.0000000000000000e+00 7.2861232081094615e-02 1.6871314089747909e-02  0.0000000000000000e+00 7.0815509470572163e-02 1.7364324854001623e-02  0.0000000000000000e+00 6.8966601732727381e-02 1.7849027570105622e-02  0.0000000000000000e+00 6.7313102659179530e-02 1.8309894054307708e-02  0.0000000000000000e+00 6.5815649053090466e-02 1.8754341547410996e-02  0.0000000000000000e+00 6.4456401272723743e-02 1.9179897163200309e-02  0.0000000000000000e+00 6.3204529123597794e-02 1.9591952097449211e-02  0.0000000000000000e+00 6.2053000280157415e-02 1.9988271179742834e-02  0.0000000000000000e+00 6.0997174577603723e-02 2.0367501246454069e-02  0.0000000000000000e+00 6.0013086913844056e-02 2.0734739712480067e-02  0.0000000000000000e+00 5.9102635284759841e-02 2.1085682867209864e-02  0.0000000000000000e+00 5.8291020183635328e-02 2.1410017665207327e-02  0.0000000000000000e+00 5.7582540036458234e-02 2.1704007263827926e-02  0.0000000000000000e+00 5.6980636853253358e-02 2.1963620102554968e-02  0.0000000000000000e+00 5.6450321213366191e-02 2.2197695777785180e-02  0.0000000000000000e+00 5.6025787294225401e-02 2.2389053583231681e-02  0.0000000000000000e+00 5.5685639662356241e-02 2.2544197746274901e-02  0.0000000000000000e+00 5.5342788846914126e-02 2.2707320364556395e-02  0.0000000000000000e+00 5.5108846049561823e-02 2.2808140412926076e-02  0.0000000000000000e+00 5.5217924720747096e-02 2.2763442689866391e-02  0.0000000000000000e+00 5.5309037660608289e-02 2.2720030298016183e-02  0.0000000000000000e+00 5.5469452297949633e-02 2.2644218212004078e-02  0.0000000000000000e+00 5.5729586257832329e-02 2.2525350900142228e-02  0.0000000000000000e+00 5.6085690025154747e-02 2.2363756323866064e-02  0.0000000000000000e+00 5.6502507837505739e-02 2.2177136191941404e-02  0.0000000000000000e+00 5.7007826855854246e-02 2.1955577308056251e-02  0.0000000000000000e+00 5.7490521213299998e-02 2.1744411165940281e-02  0.0000000000000000e+00 5.8203797613702771e-02 2.1449110207794893e-02  0.0000000000000000e+00 5.8944135805412468e-02 2.1150853621595175e-02  0.0000000000000000e+00 5.9747244680789020e-02 2.0838342840491582e-02  0.0000000000000000e+00 6.0573335503420540e-02 2.0522282209283444e-02  0.0000000000000000e+00 6.1479590754434849e-02 2.0189246981430903e-02  0.0000000000000000e+00 6.2485808726329764e-02 1.9835919313179750e-02  0.0000000000000000e+00 6.3523859607190203e-02 1.9483764714669484e-02  0.0000000000000000e+00 6.4619301117141828e-02 1.9125039349744043e-02  0.0000000000000000e+00 6.5784163660684153e-02 1.8759208376215756e-02  0.0000000000000000e+00 6.7040543671650618e-02 1.8383338726685634e-02  0.0000000000000000e+00 6.8421509577508130e-02 1.7992736116109187e-02  0.0000000000000000e+00 6.9932211616711620e-02 1.7588398261547903e-02  0.0000000000000000e+00 7.1557691711960081e-02 1.7177313670563348e-02  0.0000000000000000e+00 7.3314909153179772e-02 1.6760698689526989e-02  0.0000000000000000e+00 7.5207223126242811e-02 1.6340955140198767e-02  0.0000000000000000e+00 7.7211691489720347e-02 1.5925360288053594e-02  0.0000000000000000e+00 7.9305388695010581e-02 1.5518950584562504e-02  0.0000000000000000e+00 8.1457697878452862e-02 1.5127321554552773e-02  0.0000000000000000e+00 8.3659010531623237e-02 1.4750966355569590e-02  0.0000000000000000e+00 8.5911269812104674e-02 1.4389083082504960e-02  0.0000000000000000e+00 8.8240616896844704e-02 1.4037794071969541e-02  0.0000000000000000e+00 9.0678117927599888e-02 1.3693510935793725e-02  0.0000000000000000e+00 9.3285946555818261e-02 1.3350916550708778e-02  0.0000000000000000e+00 9.6109839038099554e-02 1.3009618494009187e-02  0.0000000000000000e+00 9.9185652589691406e-02 1.2667426738202769e-02  0.0000000000000000e+00 1.0246307257154394e-01 1.2332827365157424e-02  0.0000000000000000e+00 1.0589213623402170e-01 1.2010832786908770e-02  0.0000000000000000e+00 1.0940742959723879e-01 1.1705278405726379e-02  0.0000000000000000e+00 1.1297790320203191e-01 1.1417440536612210e-02  0.0000000000000000e+00 1.1660501698904090e-01 1.1146748590101641e-02  0.0000000000000000e+00 1.2043663809833483e-01 1.0882821784316016e-02  0.0000000000000000e+00 1.2447621432568494e-01 1.0627437469845791e-02  0.0000000000000000e+00 1.2876050960357990e-01 1.0381380229109031e-02  0.0000000000000000e+00 1.3344067394454939e-01 1.0137041205122694e-02  0.0000000000000000e+00 1.3848647582394347e-01 9.9013665809919230e-03  0.0000000000000000e+00 1.4377639651087815e-01 9.6774544961163531e-03  0.0000000000000000e+00 1.4908486898991763e-01 9.4713514056398510e-03  0.0000000000000000e+00 1.5467621014363980e-01 9.2745921004902861e-03  0.0000000000000000e+00 1.6036445536317870e-01 9.0922503976642415e-03  0.0000000000000000e+00 1.6639018063829733e-01 8.9161964137189926e-03  0.0000000000000000e+00 1.7284140874407355e-01 8.7537496448089128e-03  0.0000000000000000e+00 1.7987702402241934e-01 8.5954526124095362e-03  0.0000000000000000e+00 1.8741682235376045e-01 8.4493249230108355e-03  0.0000000000000000e+00 1.9524774733766628e-01 8.3153918602215521e-03  0.0000000000000000e+00 2.0325280168854387e-01 8.1932272263702931e-03  0.0000000000000000e+00 2.1149986528122597e-01 8.0821278403393950e-03  0.0000000000000000e+00 2.2957751062647971e-01 7.8949606422274131e-03  0.0000000000000000e+00 2.3964949719301379e-01 7.8190705357378751e-03  0.0000000000000000e+00 2.5030654375836908e-01 7.7575125091115969e-03  0.0000000000000000e+00 2.6132421123072996e-01 7.7059673375714458e-03  0.0000000000000000e+00 2.7262880335559697e-01 7.6660474993417403e-03  0.0000000000000000e+00 2.8438934265365101e-01 7.6381795025335236e-03  0.0000000000000000e+00 2.9687581464736329e-01 7.6257830060996309e-03  0.0000000000000000e+00 3.1022946175032512e-01 7.6299292119554234e-03  0.0000000000000000e+00 3.2430612341466142e-01 7.6501148927395953e-03  0.0000000000000000e+00 3.3881322338779085e-01 7.6829914118481677e-03  0.0000000000000000e+00 3.5361770875862741e-01 7.7287933269884002e-03  0.0000000000000000e+00 3.6887852819454658e-01 7.7875044550611118e-03  0.0000000000000000e+00 3.8486977985112064e-01 7.8670692391324872e-03  0.0000000000000000e+00 4.0170203641944108e-01 7.9686237140793054e-03  0.0000000000000000e+00 4.1899148604414438e-01 8.0864778094992453e-03  0.0000000000000000e+00 4.3653098497850329e-01 8.2190620548245868e-03  0.0000000000000000e+00 4.5431980394691507e-01 8.3674409907322639e-03  0.0000000000000000e+00 4.7247756510895883e-01 8.5346911500440020e-03  0.0000000000000000e+00 4.9129167719725569e-01 8.7333097910088295e-03  0.0000000000000000e+00 5.1036949121999342e-01 8.9504743051566481e-03  0.0000000000000000e+00 5.2943095233248616e-01 9.1857627154969222e-03  0.0000000000000000e+00 5.4830146105145094e-01 9.4361377210753425e-03  0.0000000000000000e+00 5.6722340232146529e-01 9.7102232226414023e-03  0.0000000000000000e+00 5.8637833196142486e-01 1.0017816510868449e-02  0.0000000000000000e+00 6.0546573503678691e-01 1.0352189192363229e-02  0.0000000000000000e+00 6.2407554185779390e-01 1.0703378428481437e-02  0.0000000000000000e+00 6.4212249336776117e-01 1.1068914624651189e-02  0.0000000000000000e+00 6.5964568832335357e-01 1.1456533636514729e-02  0.0000000000000000e+00 6.7700808219983943e-01 1.1882358837992036e-02  0.0000000000000000e+00 6.9392257836587612e-01 1.2335691102366389e-02  0.0000000000000000e+00 7.1007649862042832e-01 1.2805523000898324e-02  0.0000000000000000e+00 7.2529031133579291e-01 1.3284203102013758e-02  0.0000000000000000e+00 7.3967153642951877e-01 1.3776125943651024e-02  0.0000000000000000e+00 7.5349324113675775e-01 1.4298456615582230e-02  0.0000000000000000e+00 7.6683021420209585e-01 1.4855868384218689e-02  0.0000000000000000e+00 7.7933947187985608e-01 1.5427283946531343e-02  0.0000000000000000e+00 7.9086705574348026e-01 1.5998898632044907e-02  0.0000000000000000e+00 8.0151105202631601e-01 1.6568533684541469e-02  0.0000000000000000e+00 8.1127541989317098e-01 1.7137231945649267e-02  0.0000000000000000e+00 8.2039919322703270e-01 1.7722267103467606e-02  0.0000000000000000e+00 8.2904650247680600e-01 1.8330567112161574e-02  0.0000000000000000e+00 8.3710784515857040e-01 1.8949086805782899e-02  0.0000000000000000e+00 8.4451018663227850e-01 1.9565090624298120e-02  0.0000000000000000e+00 8.5105937713628810e-01 2.0146902773511870e-02  0.0000000000000000e+00 8.5689575809658414e-01 2.0702342546032346e-02  0.0000000000000000e+00 8.6204760208788744e-01 2.1226673570925159e-02  0.0000000000000000e+00 8.6665239567181607e-01 2.1724205744473212e-02  0.0000000000000000e+00 8.7084602064196981e-01 2.2206397927606460e-02  0.0000000000000000e+00 8.7465030764382801e-01 2.2677377867571388e-02  0.0000000000000000e+00 8.7812621546831227e-01 2.3136312508747030e-02  0.0000000000000000e+00 8.8131735885067553e-01 2.3579612707983869e-02  0.0000000000000000e+00 8.8411578658652346e-01 2.3988152627517675e-02  0.0000000000000000e+00 8.8652255295871862e-01 2.4355718885877949e-02  0.0000000000000000e+00 8.8857288658424682e-01 2.4679370192908504e-02  0.0000000000000000e+00 8.9027295120979055e-01 2.4954802698680275e-02  0.0000000000000000e+00 8.9161939862998607e-01 2.5178996911574367e-02  0.0000000000000000e+00 8.4029603705469325e-01 1.9211491119914308e-02  0.0000000000000000e+00 1.2642948633540582e-01 1.0517241009156514e-02  0.0000000000000000e+00 7.9388354316380882e-01 1.6143319866078559e-02  0.0000000000000000e+00 2.1645565958848054e-01 8.0271897352626430e-03  0.0000000000000000e+00 8.9158306057200831e-01 2.5175781154533217e-02  0.0000000000000000e+00 6.7015459157092935e-02 1.8410148255336930e-02  0.0000000000000000e+00 6.3652542259334988e-01 1.0949057855041701e-02  0.0000000000000000e+00 4.0147869621618282e-01 7.9813519306689944e-03  0.0000000000000000e+00 5.5898773946514498e-02 2.2474846241350186e-02  0.0000000000000000e+00 1.0625874468057585e-01 1.2001265252901315e-02  0.0000000000000000e+00 7.4556521566258571e-01 1.3994763809251749e-02  0.0000000000000000e+00 8.9957921553666956e-02 1.3801439837573634e-02  0.0000000000000000e+00 8.7310173110058814e-02 1.4194332699669941e-02  0.0000000000000000e+00 6.5098316776239040e-01 1.1262153492032387e-02  0.0000000000000000e+00 1.4433535158834002e-01 9.6800123558586047e-03  0.0000000000000000e+00 8.3773782459763224e-01 1.8985333650537166e-02  0.0000000000000000e+00 7.4654625375836406e-02 1.6472991871389186e-02  0.0000000000000000e+00 6.4500515681678638e-02 1.9177984391710468e-02  0.0000000000000000e+00 8.6923551214613837e-01 2.2010884853731857e-02  0.0000000000000000e+00 5.2099678494075607e-01 9.0812716365204337e-03  0.0000000000000000e+00 1.9171333805210403e-01 8.3975239915479241e-03  0.0000000000000000e+00 3.9338654490759395e-01 7.9183465547765595e-03  0.0000000000000000e+00 8.8124053441937555e-01 2.3564198713476689e-02  0.0000000000000000e+00 5.9162121994878775e-02 2.1085080699923729e-02  0.0000000000000000e+00 2.5496593676344165e-01 7.7542263601566262e-03  0.0000000000000000e+00 3.1788927306170806e-01 7.6422432895076157e-03  0.0000000000000000e+00 8.9066230173731031e-01 2.5019089569674233e-02  0.0000000000000000e+00 8.7222511004034542e-01 2.2377622324135170e-02  0.0000000000000000e+00 1.5810320756769089e-01 9.1667504902433090e-03  0.0000000000000000e+00 6.0036499087736152e-02 2.0744388203638775e-02  0.0000000000000000e+00 5.3805071317165742e-01 9.3003353876126675e-03  0.0000000000000000e+00 7.3459140570131931e-01 1.3586988210325456e-02  0.0000000000000000e+00 5.6379350917239626e-02 2.2253051253853875e-02  0.0000000000000000e+00 3.0781554114980192e-01 7.6445647666967377e-03  0.0000000000000000e+00 2.6752949485196192e-01 7.6849708285770908e-03  0.0000000000000000e+00 8.9351682246794040e-01 2.5506865053762869e-02  0.0000000000000000e+00 7.6885627259215952e-02 1.6011895296494490e-02  0.0000000000000000e+00 1.0816657127162718e-01 1.1816607854890460e-02  0.0000000000000000e+00 8.8478317021812924e-01 2.4092050971764107e-02  0.0000000000000000e+00 8.0555820578018511e-01 1.6800251507862532e-02  0.0000000000000000e+00 1.8519367592967967e-01 8.4946095024190215e-03  0.0000000000000000e+00 5.7262190070232991e-02 2.1867719152116421e-02  0.0000000000000000e+00 4.7053035552677275e-01 8.5243779052285983e-03  0.0000000000000000e+00 8.5342453603488000e-01 2.0356723811462963e-02  0.0000000000000000e+00 5.8826013319977333e-01 1.0049261324735917e-02  0.0000000000000000e+00 5.5696218498207772e-02 2.2563139872640459e-02  0.0000000000000000e+00 6.3071727071520034e-02 1.9651283788819068e-02  0.0000000000000000e+00 3.5325203883665263e-01 7.7409698071729737e-03  0.0000000000000000e+00 1.2029452699958036e-01 1.0916143876230076e-02  0.0000000000000000e+00 8.5899380855000784e-01 2.0915204184626945e-02  0.0000000000000000e+00 7.6527296222816088e-01 1.4775256707892842e-02  0.0000000000000000e+00 5.9657576619647112e-01 1.0194891302761609e-02  0.0000000000000000e+00 6.9676007722132505e-02 1.7669848641770090e-02  0.0000000000000000e+00 4.6452618711423760e-01 8.4605524961544852e-03  0.0000000000000000e+00 1.4174774774695578e-01 9.7656993278138725e-03  0.0000000000000000e+00 6.9457376246674984e-01 1.2345672888370436e-02  0.0000000000