<?xml version="1.0"?>
<VTKFile type="UnstructuredGrid"  version="0.1"  >
<UnstructuredGrid>
<Piece  NumberOfPoints="4940" NumberOfCells="9650">
<Points>
<DataArray  type="Float64"  NumberOfComponents="3"  format="ascii">500 250 0  0 250 0  250 500 0  250 0 0  256.8885856082646 499.9050767557906 0  263.7719401218049 499.6203791065173 0  270.6448364229772 499.1461232471188 0  277.5020553257866 498.4826693209355 0  284.3383895508592 497.6305211460281 0  291.1486476865662 496.5903258312597 0  297.9276581259182 495.3628732847843 0  304.6702729675493 493.9490956196674 0  311.3713719748657 492.3500664368026 0  318.0258664141369 490.5670000199653 0  324.6287029687753 488.6012504015818 0  331.1748675330201 486.4543103455647 0  337.6593890460416 484.1278102064655 0  344.0773432429536 481.6235166997244 0  350.4238564271474 478.9433315480048 0  356.694109139292 476.0892900492477 0  362.88333985546 473.0635595140469 0  368.9868485575419 469.8684376402048 0  375.0000003153078 466.5063507640667 0  380.9182288257928 462.9798520074548 0  386.7370398729688 459.2916193419558 0  392.4520147244077 455.444453565817 0  398.0588135356345 451.4412761437442 0  403.5531785622926 447.285127045646 0  408.9309374414144 442.9791624087773 0  414.1880064015299 438.5266521049243 0  419.3203932989752 433.9309773069245 0  424.324200661095 429.1956279150535 0  429.1956286596235 424.3241998957182 0  433.9309780058756 419.3203925397119 0  438.5266527445345 414.1880056671062 0  442.9791630130591 408.9309367076756 0  447.2851276060475 403.5531778422888 0  451.4412766621026 398.0588128303826 0  455.4444540361634 392.4520140460735 0  459.2916197786263 386.7370392045948 0  462.9798524073514 380.9182281752347 0  466.5063511234856 374.9999996927758 0  469.8684379657123 368.9868479560565 0  473.0635598144817 362.8833392617846 0  476.0892903190255 356.6941085676214 0  478.9433317963513 350.4238558609745 0  481.6235169154735 344.0773427117675 0  484.12781039012 337.6593885555221 0  486.4543105028062 331.1748670749914 0  488.601250531677 324.6287025528375 0  490.5670001317469 318.0258660188321 0  492.3500665291326 311.3713716102628 0  493.949095695951 304.6702726271575 0  495.3628733416623 297.9276578347343 0  496.5903258712341 291.1486474470129 0  497.6305211749058 284.3383893426084 0  498.4826693388848 277.502055163614 0  499.1461232580606 270.6448362909296 0  499.6203791109319 263.7719400417897 0  499.9050767571306 256.8885855596534 0  499.9050767559877 243.1114143988867 0  499.6203791069493 236.2280598860241 0  499.1461232485393 229.3551635941651 0  498.4826693235677 222.4979446979962 0  497.6305211491849 215.6616104719064 0  496.5903258357701 208.8513523404629 0  495.3628732906988 202.0723419043604 0  493.9490956264813 195.3297270628552 0  492.3500664487791 188.6286280724281 0  490.5670000344809 181.9741336371959 0  488.6012504175981 175.3712970824318 0  486.4543103623226 168.8251325157939 0  484.1278102222298 162.3406109960628 0  481.6235167152198 155.9226567951971 0  478.9433315621651 149.5761436051346 0  476.0892900516498 143.3058908657982 0  473.063559513628 137.1166601437124 0  469.8684376406648 131.0131514433083 0  466.5063507675389 124.9999996907064 0  462.9798520124137 119.0817711822745 0  459.2916193464549 113.2629601339176 0  455.4444535642773 107.5479852733717 0  451.4412761528674 101.9411864767781 0  447.2851270583545 96.44682145403524 0  442.9791624165781 91.06906256805769 0  438.5266521117469 85.81199360630404 0  433.9309773156125 80.67960671046254 0  429.1956279150353 75.67579933888632 0  424.3241998888952 70.80437133373906 0  419.3203925223282 66.06902197812161 0  414.1880056411937 61.47334723289828 0  408.9309366751728 57.0208369601728 0  403.5531778009394 52.71487236176898 0  398.058812796452 48.55872331295853 0  392.4520140187753 44.55554594490843 0  386.7370391799677 40.70838020528396 0  380.9182281475119 37.02014757560744 0  374.9999996718656 33.49364886444181 0  368.9868479340393 30.13156202237255 0  362.8833392380029 26.93644017348339 0  356.6941085456942 23.91070967062674 0  350.4238558420009 21.0566681953261 0  344.0773426899492 18.37648307566465 0  337.6593885328982 15.87218960140942 0  331.1748670549786 13.54568949032341 0  324.6287025315056 11.39874946165088 0  318.0258660010876 9.432999863235466 0  311.3713716017894 7.649933468721599 0  304.6702726190621 6.050904302234756 0  297.9276578269805 4.637126656823085 0  291.148647441857 3.409674127905504 0  284.3383893425031 2.369478825079682 0  277.502055159398 1.517330660648639 0  270.6448362875833 0.853876741662134 0  263.7719400401456 0.3796208889774277 0  256.8885855592052 0.09492324285704967 0  243.1114143979462 0.09492324403817065 0  236.2280598850882 0.3796208931023841 0  229.3551635938215 0.8538767514891958 0  222.4979446968584 1.517330676558146 0  215.6616104703111 2.369478851036291 0  208.8513523382973 3.409674164591252 0  202.0723419066374 4.637126708856528 0  195.3297270659513 6.050904372824903 0  188.628628074828 7.649933550613184 0  181.9741336377093 9.432999965373938 0  175.3712970793675 11.39874958336037 0  168.8251325057572 13.54568964112298 0  162.340610986655 15.87218978129263 0  155.9226567874317 18.37648328793418 0  149.576143602509 21.05666843898663 0  143.3058908718157 23.91070994551046 0  137.1166601505524 26.93644048291054 0  131.0131514451933 30.13156235831508 0  124.9999996848412 33.49364923584736 0  119.0817711715717 37.0201479941652 0  113.2629601211624 40.70838066187849 0  107.5479852622251 44.55554644345162 0  101.9411864693332 48.55872385260452 0  96.44682143286516 52.71487295812284 0  91.06906254351222 57.02083760363669 0  85.81199358272519 61.4733479087879 0  80.67960667988106 66.06902271253972 0  75.67579930062769 70.80437212218331 0  70.80437129287643 75.67580015310926 0  66.06902193673014 80.67960752263491 0  61.47334718684866 85.81199441168215 0  57.02083692524275 91.0690633672404 0  52.71487232786438 96.44682224262129 0  48.55872328070024 101.941187247437 0  44.55554591578033 107.5479860232332 0  40.7083801742321 113.2629608675606 0  37.02014754791168 119.0817718975441 0  33.49364883372994 125.000000381329 0  30.13156199866361 131.0131521097709 0  26.9364401549829 137.1166607985551 0  23.91070965524918 143.3058914868915 0  21.05666818346614 149.576144185037 0  18.37648306853811 155.9226573275967 0  15.8721895918909 162.3406114925245 0  13.54568948170046 168.8251329701392 0  11.39874945301878 175.3712974960928 0  9.432999857087736 181.9741340206533 0  7.649933466342702 188.6286284076045 0  6.050904301250966 195.3297273853278 0  4.637126656808988 202.0723421730917 0  3.409674127767772 208.8513525589684 0  2.369478824521138 215.6616106615248 0  1.517330660909465 222.4979448382452 0  0.8538767414496533 229.355163714981 0  0.3796208887135322 236.2280599646376 0  0.09492324266324204 243.1114144478261 0  0.0949232442452228 256.8885856095658 0  0.3796208935834784 263.7719401236316 0  0.8538767530323526 270.6448364248016 0  1.517330679476544 277.5020553295092 0  2.369478854618649 284.3383895555228 0  3.409674170191892 291.1486476952655 0  4.6371267162381 297.9276581311522 0  6.050904381420935 304.6702729724059 0  7.649933562385399 311.3713719716595 0  9.43299997979841 318.0258664133013 0  11.3987495994252 324.6287029719946 0  13.54568965885832 331.174867545904 0  15.87218979367188 337.6593890464085 0  18.37648329843151 344.0773432384132 0  21.05666844777872 350.423856417535 0  23.91070995156048 356.6941091410045 0  26.93644048988043 362.8833398632205 0  30.13156235982007 368.9868485575877 0  33.49364924138357 375.0000003247478 0  37.0201480006036 380.9182288389023 0  40.70838066758398 386.7370398875706 0  44.55554644477201 392.4520147396792 0  48.55872386086904 398.0588135419111 0  52.71487295981296 403.5531785693063 0  57.02083760525949 408.9309374584583 0  61.47334790862246 414.1880064170849 0  66.06902271205095 419.320393319588 0  70.80437211216579 424.3242006890749 0  75.67580013809859 429.195628692521 0  80.6796075127923 433.930978054209 0  85.81199439754931 438.5266528008431 0  91.06906334717917 442.9791630582355 0  96.44682221438322 447.2851276501571 0  101.9411872243843 451.441276702356 0  107.5479859945825 455.4444540643537 0  113.2629608446994 459.2916198108319 0  119.0817718768376 462.9798524393601 0  125.0000003647644 466.5063511567065 0  131.0131521012763 469.8684379967393 0  137.1166607840049 473.0635598376539 0  143.3058914748804 476.0892903390826 0  149.5761441732679 478.9433318113714 0  155.9226573130112 481.6235169255377 0  162.3406114779862 484.1278104026658 0  168.8251329570439 486.4543105138039 0  175.3712974805475 488.601250542119 0  181.9741340135204 490.5670001408953 0  188.6286284005059 492.3500665318597 0  195.3297273788229 493.9490956972913 0  202.0723421640089 495.3628733414168 0  208.8513525529672 496.5903258712308 0  215.6616106544547 497.6305211744985 0  222.4979448327038 498.4826693384772 0  229.3551637102845 499.1461232581612 0  236.2280599621369 499.6203791111485 0  243.1114144470173 499.9050767573145 0  155.2373389820306 474.8197567317462 0  25.36256300907667 153.9152755065208 0  432.3709625126712 412.6214396304305 0  6.013151705810699 246.637913163471 0  246.6379131630491 493.986848294322 0  338.6995838441862 22.68244767887072 0  477.3175523131281 338.6995838660569 0  493.9868482700757 246.6379131399102 0  246.6201155078769 6.218451882810491 0  417.6179310263282 72.7156044707053 0  102.2232990934413 445.0100869616822 0  63.66330858966404 92.20354579482142 0  391.3105220491464 50.73522820883105 0  72.79295043967942 418.0702734974704 0  448.290574428537 108.25674339002 0  402.4604651193511 440.7462829841712 0  97.55317348421397 59.11376320116034 0  136.7376477664901 33.58246472647134 0  363.3288394375288 465.6947312928271 0  44.0678766556007 381.0860953771871 0  469.6905266180034 142.3890690100806 0  22.68244791668644 338.6995843487432 0  338.699584349159 477.317552078365 0  173.389488083762 18.6681884918202 0  483.4809734778481 179.7121987795732 0  13.50237455842738 306.4709525540879 0  305.9825168523021 487.24416992
[...]
<PointData  Vectors="f_12"> 
<DataArray  type="Float64"  Name="f_12"  NumberOfComponents="3" format="ascii">0.0000000000000000e+00 6.1666913453099070e-01 1.0557778777318382e-02  0.0000000000000000e+00 3.7921477469136167e-01 7.8176943165240449e-03  0.0000000000000000e+00 9.3872252708989135e-01 4.1704114623663906e-02  0.0000000000000000e+00 1.0349930313120406e-01 1.2191111002864023e-02  0.0000000000000000e+00 9.3898271946167433e-01 4.1926698252322522e-02  0.0000000000000000e+00 9.3914100834568204e-01 4.2064522353929830e-02  0.0000000000000000e+00 9.3922687128386950e-01 4.2139543964115685e-02  0.0000000000000000e+00 9.3922513721021528e-01 4.2138023634457282e-02  0.0000000000000000e+00 9.3914563178200072e-01 4.2067914435256086e-02  0.0000000000000000e+00 9.3898669429585957e-01 4.1928699700710989e-02  0.0000000000000000e+00 9.3874588493071176e-01 4.1720978915644004e-02  0.0000000000000000e+00 9.3842222084721172e-01 4.1447539850729360e-02  0.0000000000000000e+00 9.3801008281961551e-01 4.1108221271538702e-02  0.0000000000000000e+00 9.3750119388433961e-01 4.0702803253348394e-02  0.0000000000000000e+00 9.3687909357550614e-01 4.0225279162135863e-02  0.0000000000000000e+00 9.3619165968048357e-01 3.9718158063454724e-02  0.0000000000000000e+00 9.3535871070888199e-01 3.9135471330629550e-02  0.0000000000000000e+00 9.3445796554677374e-01 3.8539326150486816e-02  0.0000000000000000e+00 9.3346162626786577e-01 3.7915888294106498e-02  0.0000000000000000e+00 9.3238408285535379e-01 3.7280412952876964e-02  0.0000000000000000e+00 9.3123347942992540e-01 3.6645016744554927e-02  0.0000000000000000e+00 9.2998340941307367e-01 3.6001237856489572e-02  0.0000000000000000e+00 9.2863902697181056e-01 3.5352091518769092e-02  0.0000000000000000e+00 9.2718948768869347e-01 3.4696528979015200e-02  0.0000000000000000e+00 9.2557865239123338e-01 3.4013587845108967e-02  0.0000000000000000e+00 9.2374358980998006e-01 3.3285406935495622e-02  0.0000000000000000e+00 9.2164353102844065e-01 3.2503475531668012e-02  0.0000000000000000e+00 9.1929158644096143e-01 3.1686281590452989e-02  0.0000000000000000e+00 9.1666028373373176e-01 3.0838704964740105e-02  0.0000000000000000e+00 9.1374866046302605e-01 2.9972121083456583e-02  0.0000000000000000e+00 9.1066453180102391e-01 2.9131449472852566e-02  0.0000000000000000e+00 9.0740978868309896e-01 2.8323555989399132e-02  0.0000000000000000e+00 9.0399673315364892e-01 2.7549694880005214e-02  0.0000000000000000e+00 9.0036953897740368e-01 2.6794930418978558e-02  0.0000000000000000e+00 8.9637032788767190e-01 2.6029699264486499e-02  0.0000000000000000e+00 8.9194004371233027e-01 2.5245860342590971e-02  0.0000000000000000e+00 8.8702153730753830e-01 2.4439498042047363e-02  0.0000000000000000e+00 8.8157781605837660e-01 2.3619486097080061e-02  0.0000000000000000e+00 8.7571175667812662e-01 2.2815250235618919e-02  0.0000000000000000e+00 8.6959425501731114e-01 2.2055953486527405e-02  0.0000000000000000e+00 8.6322039006161999e-01 2.1340554760237846e-02  0.0000000000000000e+00 8.5639650612761309e-01 2.0642558997407398e-02  0.0000000000000000e+00 8.4895475402858034e-01 1.9942131637232588e-02  0.0000000000000000e+00 8.4082749001871404e-01 1.9239287735455607e-02  0.0000000000000000e+00 8.3198585813211590e-01 1.8537314567245472e-02  0.0000000000000000e+00 8.2260859068561032e-01 1.7857612383874694e-02  0.0000000000000000e+00 8.1286537795558300e-01 1.7219889658235895e-02  0.0000000000000000e+00 8.0277081425194730e-01 1.6623900401210846e-02  0.0000000000000000e+00 7.9197439742202425e-01 1.6040415007243649e-02  0.0000000000000000e+00 7.8040993367990108e-01 1.5462483931796169e-02  0.0000000000000000e+00 7.6800095644624733e-01 1.4891742524822889e-02  0.0000000000000000e+00 7.5499153565476307e-01 1.4342104032575612e-02  0.0000000000000000e+00 7.4160992903401401e-01 1.3829772776829233e-02  0.0000000000000000e+00 7.2786392792838805e-01 1.3351872000965161e-02  0.0000000000000000e+00 7.1359235476178018e-01 1.2896762220994989e-02  0.0000000000000000e+00 6.9857205256216359e-01 1.2453873230947737e-02  0.0000000000000000e+00 6.8270489586581995e-01 1.2017489483565505e-02  0.0000000000000000e+00 6.6636653431415627e-01 1.1602769597543449e-02  0.0000000000000000e+00 6.4992258322581498e-01 1.1216471426815824e-02  0.0000000000000000e+00 6.3375186415925344e-01 1.0880396982802189e-02  0.0000000000000000e+00 5.9914657772263535e-01 1.0228653280714439e-02  0.0000000000000000e+00 5.8121496821251417e-01 9.9212693391616605e-03  0.0000000000000000e+00 5.6347513147316053e-01 9.6471750694255808e-03  0.0000000000000000e+00 5.4579258464561331e-01 9.3918077864727743e-03  0.0000000000000000e+00 5.2827442204305741e-01 9.1655730378596770e-03  0.0000000000000000e+00 5.1043332634669136e-01 8.9450742266285552e-03  0.0000000000000000e+00 4.9244927507205560e-01 8.7401575298564141e-03  0.0000000000000000e+00 4.7464897547675849e-01 8.5529520057913162e-03  0.0000000000000000e+00 4.5734727481052023e-01 8.3892076309170747e-03  0.0000000000000000e+00 4.4053551192910961e-01 8.2483643417577933e-03  0.0000000000000000e+00 4.2385078109285684e-01 8.1200285740321738e-03  0.0000000000000000e+00 4.0727075238589572e-01 8.0045148474652428e-03  0.0000000000000000e+00 3.9084935290423733e-01 7.9009756364976733e-03  0.0000000000000000e+00 3.7506242071564816e-01 7.8160818451782996e-03  0.0000000000000000e+00 3.6002636071646649e-01 7.7507204014031581e-03  0.0000000000000000e+00 3.4558041326866124e-01 7.7030036456004888e-03  0.0000000000000000e+00 3.3140171306545396e-01 7.6664455849041382e-03  0.0000000000000000e+00 3.1743629168791571e-01 7.6410804107134829e-03  0.0000000000000000e+00 3.0390725569515065e-01 7.6288868658281449e-03  0.0000000000000000e+00 2.9109854610899527e-01 7.6320696013410082e-03  0.0000000000000000e+00 2.7903248611879256e-01 7.6504726268427021e-03  0.0000000000000000e+00 2.6766548536428164e-01 7.6839123863808824e-03  0.0000000000000000e+00 2.5657446789144267e-01 7.7287101137976212e-03  0.0000000000000000e+00 2.4577975238192451e-01 7.7840814110058162e-03  0.0000000000000000e+00 2.3537325163757505e-01 7.8511822932809776e-03  0.0000000000000000e+00 2.2561058787502317e-01 7.9307812180983029e-03  0.0000000000000000e+00 2.1659973221282586e-01 8.0222551399378970e-03  0.0000000000000000e+00 2.0822800706495062e-01 8.1247141018058536e-03  0.0000000000000000e+00 2.0026672469445631e-01 8.2358632237987828e-03  0.0000000000000000e+00 1.9253532644264942e-01 8.3585257429927527e-03  0.0000000000000000e+00 1.8503197281579800e-01 8.4916847068122834e-03  0.0000000000000000e+00 1.7788170043762483e-01 8.6350387722337173e-03  0.0000000000000000e+00 1.7121900366812140e-01 8.7875284643230498e-03  0.0000000000000000e+00 1.6518270405929097e-01 8.9441107712211303e-03  0.0000000000000000e+00 1.5975114780160976e-01 9.1025776891292091e-03  0.0000000000000000e+00 1.5464393716700586e-01 9.2658301515449234e-03  0.0000000000000000e+00 1.4979251314475364e-01 9.4348723121472702e-03  0.0000000000000000e+00 1.4521109272722005e-01 9.6083404001768603e-03  0.0000000000000000e+00 1.4070832579265846e-01 9.7907330101953613e-03  0.0000000000000000e+00 1.3635992095818839e-01 9.9812647694024342e-03  0.0000000000000000e+00 1.3242482664293009e-01 1.0168701721618548e-02  0.0000000000000000e+00 1.2881584730050227e-01 1.0358066017554412e-02  0.0000000000000000e+00 1.2559212499711256e-01 1.0539188196764176e-02  0.0000000000000000e+00 1.2270940475986807e-01 1.0713637590185949e-02  0.0000000000000000e+00 1.2014355276146789e-01 1.0878554150983169e-02  0.0000000000000000e+00 1.1782599629788690e-01 1.1035820294874300e-02  0.0000000000000000e+00 1.1572610042722792e-01 1.1184886381194191e-02  0.0000000000000000e+00 1.1381580002618991e-01 1.1326147924421463e-02  0.0000000000000000e+00 1.1203584522814176e-01 1.1462321890183425e-02  0.0000000000000000e+00 1.1038078584370266e-01 1.1592328387490096e-02  0.0000000000000000e+00 1.0889173863992856e-01 1.1713217963333408e-02  0.0000000000000000e+00 1.0757655842828694e-01 1.1823804764648496e-02  0.0000000000000000e+00 1.0644378798106167e-01 1.1922922778390703e-02  0.0000000000000000e+00 1.0543528855487951e-01 1.2013024477115233e-02  0.0000000000000000e+00 1.0461957162484209e-01 1.2087228405819902e-02  0.0000000000000000e+00 1.0396189313307458e-01 1.2147670235158449e-02  0.0000000000000000e+00 1.0328865514606025e-01 1.2212903872136239e-02  0.0000000000000000e+00 1.0284140247551946e-01 1.2250703885587223e-02  0.0000000000000000e+00 1.0304328122524564e-01 1.2234865769918625e-02  0.0000000000000000e+00 1.0321746054231998e-01 1.2218093631732587e-02  0.0000000000000000e+00 1.0352560120329347e-01 1.2188562380714299e-02  0.0000000000000000e+00 1.0402302658127555e-01 1.2142838617210791e-02  0.0000000000000000e+00 1.0470187766582888e-01 1.2080785189947077e-02  0.0000000000000000e+00 1.0549211052773479e-01 1.2009235044661615e-02  0.0000000000000000e+00 1.0644232784133556e-01 1.1924891625860723e-02  0.0000000000000000e+00 1.0734472125839863e-01 1.1844361311291600e-02  0.0000000000000000e+00 1.0865773252023915e-01 1.1734287840484844e-02  0.0000000000000000e+00 1.1000662238585374e-01 1.1623720869506101e-02  0.0000000000000000e+00 1.1145519219204920e-01 1.1508694057257105e-02  0.0000000000000000e+00 1.1293424344005805e-01 1.1392087613284895e-02  0.0000000000000000e+00 1.1455094934407459e-01 1.1269421953979430e-02  0.0000000000000000e+00 1.1635096407171190e-01 1.1139098665954214e-02  0.0000000000000000e+00 1.1821795390402093e-01 1.1007904374793419e-02  0.0000000000000000e+00 1.2021000450282202e-01 1.0872364176237338e-02  0.0000000000000000e+00 1.2236085579545804e-01 1.0732216426174579e-02  0.0000000000000000e+00 1.2471850449970431e-01 1.0586848626284904e-02  0.0000000000000000e+00 1.2734390729819697e-01 1.0435159192492259e-02  0.0000000000000000e+00 1.3023559685697889e-01 1.0278311839559710e-02  0.0000000000000000e+00 1.3334176663804184e-01 1.0120031552484985e-02  0.0000000000000000e+00 1.3666032588482355e-01 9.9624712307174630e-03  0.0000000000000000e+00 1.4016375453349481e-01 9.8073071078804211e-03  0.0000000000000000e+00 1.4378591583481432e-01 9.6572756477856844e-03  0.0000000000000000e+00 1.4748356576882446e-01 9.5134048832516520e-03  0.0000000000000000e+00 1.5122472124294584e-01 9.3764211985335223e-03  0.0000000000000000e+00 1.5503553384391369e-01 9.2449595190305569e-03  0.0000000000000000e+00 1.5896941885675248e-01 9.1176646641041477e-03  0.0000000000000000e+00 1.6311458356316941e-01 8.9927645980924717e-03  0.0000000000000000e+00 1.6754324140040575e-01 8.8694250290789426e-03  0.0000000000000000e+00 1.7234720792360278e-01 8.7475203132627230e-03  0.0000000000000000e+00 1.7754608352916509e-01 8.6292151897706948e-03  0.0000000000000000e+00 1.8312379706239046e-01 8.5146389573870166e-03  0.0000000000000000e+00 1.8891333315219588e-01 8.4070102925567561e-03  0.0000000000000000e+00 1.9480209956886491e-01 8.3072170563800816e-03  0.0000000000000000e+00 2.0071568933422620e-01 8.2148380718338899e-03  0.0000000000000000e+00 2.0669006398898793e-01 8.1292288765899001e-03  0.0000000000000000e+00 2.1282876303065504e-01 8.0500007886279961e-03  0.0000000000000000e+00 2.1945446057344475e-01 7.9745014637656233e-03  0.0000000000000000e+00 2.2655629097008317e-01 7.9048275721360032e-03  0.0000000000000000e+00 2.3409804632125911e-01 7.8427964959876199e-03  0.0000000000000000e+00 2.4219058417989778e-01 7.7864431757192452e-03  0.0000000000000000e+00 2.5064926059062143e-01 7.7388943455451286e-03  0.0000000000000000e+00 2.5925400155036149e-01 7.6984469794468087e-03  0.0000000000000000e+00 2.6775021991226805e-01 7.6645146711140071e-03  0.0000000000000000e+00 2.7672730114300709e-01 7.6376017567414967e-03  0.0000000000000000e+00 2.8602707618031498e-01 7.6185039477968224e-03  0.0000000000000000e+00 2.9601522361573235e-01 7.6071359558699545e-03  0.0000000000000000e+00 3.0666313335700518e-01 7.6102641896516098e-03  0.0000000000000000e+00 3.1797927159549610e-01 7.6212669750827669e-03  0.0000000000000000e+00 3.2967261292347283e-01 7.6430120244555368e-03  0.0000000000000000e+00 3.4148133150536558e-01 7.6718506600908995e-03  0.0000000000000000e+00 3.5346429217262776e-01 7.7077644309683597e-03  0.0000000000000000e+00 3.6593212375354089e-01 7.7544901322579140e-03  0.0000000000000000e+00 3.9334515045737289e-01 7.8972487000455571e-03  0.0000000000000000e+00 4.0804060324000035e-01 7.9910520248963595e-03  0.0000000000000000e+00 4.2298027727679266e-01 8.0968706088564765e-03  0.0000000000000000e+00 4.3803165136158245e-01 8.2102813231620091e-03  0.0000000000000000e+00 4.5340530153632874e-01 8.3375138463794886e-03  0.0000000000000000e+00 4.6945407356261482e-01 8.4852858266942863e-03  0.0000000000000000e+00 4.8628429077443719e-01 8.6581456352344058e-03  0.0000000000000000e+00 5.0363553563612706e-01 8.8521616348774864e-03  0.0000000000000000e+00 5.2110453246380128e-01 9.0612159569947830e-03  0.0000000000000000e+00 5.3853476757046892e-01 9.2836638354347675e-03  0.0000000000000000e+00 5.5612447767807949e-01 9.5276237346878304e-03  0.0000000000000000e+00 5.7409648277179426e-01 9.7987220685944194e-03  0.0000000000000000e+00 5.9240862466649113e-01 1.0102404645718370e-02  0.0000000000000000e+00 6.1077071122876780e-01 1.0431815339445625e-02  0.0000000000000000e+00 6.2876091872748474e-01 1.0776790320169110e-02  0.0000000000000000e+00 6.4647632379332320e-01 1.1144840391552028e-02  0.0000000000000000e+00 6.6416227868045297e-01 1.1548247889108677e-02  0.0000000000000000e+00 6.8173699435264423e-01 1.1988061714127616e-02  0.0000000000000000e+00 6.9906623255121769e-01 1.2467286622726162e-02  0.0000000000000000e+00 7.1571890845630270e-01 1.2964094502523046e-02  0.0000000000000000e+00 7.3170364223606343e-01 1.3485428858994850e-02  0.0000000000000000e+00 7.4717290807587633e-01 1.4043036904602058e-02  0.0000000000000000e+00 7.6225989522697235e-01 1.4649087628900579e-02  0.0000000000000000e+00 7.7680109563530675e-01 1.5299419662108125e-02  0.0000000000000000e+00 7.9048913301859247e-01 1.5973051188136956e-02  0.0000000000000000e+00 8.0324088579475927e-01 1.6663664150882739e-02  0.0000000000000000e+00 8.1529389333237146e-01 1.7388695027054209e-02  0.0000000000000000e+00 8.2672339567916486e-01 1.8162815451347861e-02  0.0000000000000000e+00 8.3757308527571284e-01 1.8991108098398924e-02  0.0000000000000000e+00 8.4759059105744983e-01 1.9839468534081681e-02  0.0000000000000000e+00 8.5670908075904240e-01 2.0692784635079054e-02  0.0000000000000000e+00 8.6504654182920460e-01 2.1561134147009463e-02  0.0000000000000000e+00 8.7278867617307054e-01 2.2465754216083350e-02  0.0000000000000000e+00 8.8003765311391746e-01 2.3423556923086567e-02  0.0000000000000000e+00 8.8674606003386636e-01 2.4419405348959099e-02  0.0000000000000000e+00 8.9276407065837382e-01 2.5409618665591951e-02  0.0000000000000000e+00 8.9809940770929075e-01 2.6378087306540544e-02  0.0000000000000000e+00 9.0290000265150117e-01 2.7340342527704495e-02  0.0000000000000000e+00 9.0725697719678211e-01 2.8312848853361022e-02  0.0000000000000000e+00 9.1127230620633015e-01 2.9318984586468446e-02  0.0000000000000000e+00 9.1498359047335576e-01 3.0357662469138690e-02  0.0000000000000000e+00 9.1833392276789783e-01 3.1396307301311807e-02  0.0000000000000000e+00 9.2129232898939695e-01 3.2404728957483600e-02  0.0000000000000000e+00 9.2383266921290164e-01 3.3342737292428717e-02  0.0000000000000000e+00 9.2602456951321954e-01 3.4220798767811755e-02  0.0000000000000000e+00 9.2792153116555065e-01 3.5044714143954790e-02  0.0000000000000000e+00 9.2959478403845952e-01 3.5827896471244194e-02  0.0000000000000000e+00 9.3110184960896725e-01 3.6589071788642222e-02  0.0000000000000000e+00 9.3245813758169360e-01 3.7335324656959622e-02  0.0000000000000000e+00 9.3368663880750091e-01 3.8066269837622187e-02  0.0000000000000000e+00 9.3480193019161961e-01 3.8775682892544482e-02  0.0000000000000000e+00 9.3577651779693671e-01 3.9436626089018365e-02  0.0000000000000000e+00 9.3661084722516519e-01 4.0036879785235686e-02  0.0000000000000000e+00 9.3731645766678306e-01 4.0569240087263744e-02  0.0000000000000000e+00 9.3789752411682759e-01 4.1024826658361914e-02  0.0000000000000000e+00 9.3835646675225970e-01 4.1397973831252419e-02  0.0000000000000000e+00 9.1971321782795934e-01 3.1858853767514329e-02  0.0000000000000000e+00 2.2998222488382344e-01 7.8790310466079014e-03  0.0000000000000000e+00 8.9788286849094723e-01 2.6313229016206446e-02  0.0000000000000000e+00 3.7344191910015345e-01 7.7920049155676564e-03  0.0000000000000000e+00 9.3840420648967438e-01 4.1440052414717196e-02  0.0000000000000000e+00 1.2501533886482513e-01 1.0582007312931968e-02  0.0000000000000000e+00 8.0744477273984472e-01 1.6895798523371836e-02  0.0000000000000000e+00 6.0780673423225873e-01 1.0389369219833185e-02  0.0000000000000000e+00 1.0433848381998601e-01 1.2128493748816367e-02  0.0000000000000000e+00 1.9692691114283764e-01 8.2899232056976840e-03  0.0000000000000000e+00 8.7602491856018971e-01 2.2882978975052586e-02  0.0000000000000000e+00 1.6624254386025089e-01 8.9106110172703715e-03  0.0000000000000000e+00 1.6249151949574198e-01 9.0245355681184570e-03  0.0000000000000000e+00 8.2127646115975228e-01 1.7785495439799438e-02  0.0000000000000000e+00 2.6235448857676880e-01 7.7057973637494649e-03  0.0000000000000000e+00 9.1787642037112582e-01 3.1224210797463715e-02  0.0000000000000000e+00 1.3913177355705850e-01 9.8593303213353814e-03  0.0000000000000000e+00 1.2002936716706634e-01 1.0893707504427978e-02  0.0000000000000000e+00 9.3038103348100010e-01 3.6203790780448553e-02  0.0000000000000000e+00 7.2479982470571358e-01 1.3257436285684305e-02  0.0000000000000000e+00 3.3828125879448823e-01 7.6842002429594377e-03  0.0000000000000000e+00 6.0186364311873497e-01 1.0271363423359020e-02  0.0000000000000000e+00 9.3476848697293224e-01 3.8744474236453379e-02  0.0000000000000000e+00 1.1039770508300567e-01 1.1603236842685938e-02  0.0000000000000000e+00 4.3037792195500646e-01 8.1705244888404093e-03  0.0000000000000000e+00 5.1319160978660927e-01 8.9682946105111277e-03  0.0000000000000000e+00 9.3810333722517070e-01 4.1187820809665238e-02  0.0000000000000000e+00 9.3166759606528715e-01 3.6897192463730674e-02  0.0000000000000000e+00 2.8229364111175709e-01 7.6284374850074570e-03  0.0000000000000000e+00 1.1207386236316808e-01 1.1469305046948928e-02  0.0000000000000000e+00 7.3437424407175023e-01 1.3575257928597451e-02  0.0000000000000000e+00 8.6724972109097820e-01 2.1787500024749183e-02  0.0000000000000000e+00 1.0524182577235928e-01 1.2043200081627776e-02  0.0000000000000000e+00 5.0005415013323640e-01 8.8262433351376252e-03  0.0000000000000000e+00 4.4642429666486244e-01 8.2807163889895927e-03  0.0000000000000000e+00 9.3905490963353000e-01 4.1991774204251785e-02  0.0000000000000000e+00 1.4379321705959064e-01 9.6697103040947422e-03  0.0000000000000000e+00 1.9863340033054291e-01 8.2505780533062567e-03  0.0000000000000000e+00 9.3607412026408199e-01 3.9650326183602695e-02  0.0000000000000000e+00 9.0483416258068372e-01 2.7760777955935120e-02  0.0000000000000000e+00 3.2621007653467404e-01 7.6393378880412173e-03  0.0000000000000000e+00 1.0694426369063333e-01 1.1892746888732080e-02  0.0000000000000000e+00 6.7598998819813805e-01 1.1845482932445070e-02  0.0000000000000000e+00 9.2438898601314812e-01 3.3539261823003701e-02  0.0000000000000000e+00 7.7385848923103429e-01 1.5157767550006135e-02  0.0000000000000000e+00 1.0394452562116661e-01 1.2162380135049725e-02  0.0000000000000000e+00 1.1759892203323485e-01 1.1060207741918484e-02  0.0000000000000000e+00 5.5420511935763306e-01 9.5121962604343187e-03  0.0000000000000000e+00 2.2121045775489837e-01 7.9754773263784155e-03  0.0000000000000000e+00 9.2688221050305453e-01 3.4589195156760497e-02  0.0000000000000000e+00 8.8386658453293132e-01 2.3957403584584036e-02  0.0000000000000000e+00 7.8439291995558535e-01 1.5668123029838856e-02  0.0000000000000000e+00 1.2975199665763498e-01 1.0313243907261557e-02  0.0000000000000000e+00 6.7421182884561903e-01 1.1796556470829606e-02  0.0000000000000000e+00 2.5594932949355059e-01 7.7166784858398868e-03  0.0000000000000000e+00 8.4458093081323860e-01 1.9559322901270906e-02  0.0000000000