<?xml version="1.0"?>
<VTKFile type="UnstructuredGrid"  version="0.1"  >
<UnstructuredGrid>
<Piece  NumberOfPoints="4940" NumberOfCells="9650">
<Points>
<DataArray  type="Float64"  NumberOfComponents="3"  format="ascii">500 250 0  0 250 0  250 500 0  250 0 0  256.8885856082646 499.9050767557906 0  263.7719401218049 499.6203791065173 0  270.6448364229772 499.1461232471188 0  277.5020553257866 498.4826693209355 0  284.3383895508592 497.6305211460281 0  291.1486476865662 496.5903258312597 0  297.9276581259182 495.3628732847843 0  304.6702729675493 493.9490956196674 0  311.3713719748657 492.3500664368026 0  318.0258664141369 490.5670000199653 0  324.6287029687753 488.6012504015818 0  331.1748675330201 486.4543103455647 0  337.6593890460416 484.1278102064655 0  344.0773432429536 481.6235166997244 0  350.4238564271474 478.9433315480048 0  356.694109139292 476.0892900492477 0  362.88333985546 473.0635595140469 0  368.9868485575419 469.8684376402048 0  375.0000003153078 466.5063507640667 0  380.9182288257928 462.9798520074548 0  386.7370398729688 459.2916193419558 0  392.4520147244077 455.444453565817 0  398.0588135356345 451.4412761437442 0  403.5531785622926 447.285127045646 0  408.9309374414144 442.9791624087773 0  414.1880064015299 438.5266521049243 0  419.3203932989752 433.9309773069245 0  424.324200661095 429.1956279150535 0  429.1956286596235 424.3241998957182 0  433.9309780058756 419.3203925397119 0  438.5266527445345 414.1880056671062 0  442.9791630130591 408.9309367076756 0  447.2851276060475 403.5531778422888 0  451.4412766621026 398.0588128303826 0  455.4444540361634 392.4520140460735 0  459.2916197786263 386.7370392045948 0  462.9798524073514 380.9182281752347 0  466.5063511234856 374.9999996927758 0  469.8684379657123 368.9868479560565 0  473.0635598144817 362.8833392617846 0  476.0892903190255 356.6941085676214 0  478.9433317963513 350.4238558609745 0  481.6235169154735 344.0773427117675 0  484.12781039012 337.6593885555221 0  486.4543105028062 331.1748670749914 0  488.601250531677 324.6287025528375 0  490.5670001317469 318.0258660188321 0  492.3500665291326 311.3713716102628 0  493.949095695951 304.6702726271575 0  495.3628733416623 297.9276578347343 0  496.5903258712341 291.1486474470129 0  497.6305211749058 284.3383893426084 0  498.4826693388848 277.502055163614 0  499.1461232580606 270.6448362909296 0  499.6203791109319 263.7719400417897 0  499.9050767571306 256.8885855596534 0  499.9050767559877 243.1114143988867 0  499.6203791069493 236.2280598860241 0  499.1461232485393 229.3551635941651 0  498.4826693235677 222.4979446979962 0  497.6305211491849 215.6616104719064 0  496.5903258357701 208.8513523404629 0  495.3628732906988 202.0723419043604 0  493.9490956264813 195.3297270628552 0  492.3500664487791 188.6286280724281 0  490.5670000344809 181.9741336371959 0  488.6012504175981 175.3712970824318 0  486.4543103623226 168.8251325157939 0  484.1278102222298 162.3406109960628 0  481.6235167152198 155.9226567951971 0  478.9433315621651 149.5761436051346 0  476.0892900516498 143.3058908657982 0  473.063559513628 137.1166601437124 0  469.8684376406648 131.0131514433083 0  466.5063507675389 124.9999996907064 0  462.9798520124137 119.0817711822745 0  459.2916193464549 113.2629601339176 0  455.4444535642773 107.5479852733717 0  451.4412761528674 101.9411864767781 0  447.2851270583545 96.44682145403524 0  442.9791624165781 91.06906256805769 0  438.5266521117469 85.81199360630404 0  433.9309773156125 80.67960671046254 0  429.1956279150353 75.67579933888632 0  424.3241998888952 70.80437133373906 0  419.3203925223282 66.06902197812161 0  414.1880056411937 61.47334723289828 0  408.9309366751728 57.0208369601728 0  403.5531778009394 52.71487236176898 0  398.058812796452 48.55872331295853 0  392.4520140187753 44.55554594490843 0  386.7370391799677 40.70838020528396 0  380.9182281475119 37.02014757560744 0  374.9999996718656 33.49364886444181 0  368.9868479340393 30.13156202237255 0  362.8833392380029 26.93644017348339 0  356.6941085456942 23.91070967062674 0  350.4238558420009 21.0566681953261 0  344.0773426899492 18.37648307566465 0  337.6593885328982 15.87218960140942 0  331.1748670549786 13.54568949032341 0  324.6287025315056 11.39874946165088 0  318.0258660010876 9.432999863235466 0  311.3713716017894 7.649933468721599 0  304.6702726190621 6.050904302234756 0  297.9276578269805 4.637126656823085 0  291.148647441857 3.409674127905504 0  284.3383893425031 2.369478825079682 0  277.502055159398 1.517330660648639 0  270.6448362875833 0.853876741662134 0  263.7719400401456 0.3796208889774277 0  256.8885855592052 0.09492324285704967 0  243.1114143979462 0.09492324403817065 0  236.2280598850882 0.3796208931023841 0  229.3551635938215 0.8538767514891958 0  222.4979446968584 1.517330676558146 0  215.6616104703111 2.369478851036291 0  208.8513523382973 3.409674164591252 0  202.0723419066374 4.637126708856528 0  195.3297270659513 6.050904372824903 0  188.628628074828 7.649933550613184 0  181.9741336377093 9.432999965373938 0  175.3712970793675 11.39874958336037 0  168.8251325057572 13.54568964112298 0  162.340610986655 15.87218978129263 0  155.9226567874317 18.37648328793418 0  149.576143602509 21.05666843898663 0  143.3058908718157 23.91070994551046 0  137.1166601505524 26.93644048291054 0  131.0131514451933 30.13156235831508 0  124.9999996848412 33.49364923584736 0  119.0817711715717 37.0201479941652 0  113.2629601211624 40.70838066187849 0  107.5479852622251 44.55554644345162 0  101.9411864693332 48.55872385260452 0  96.44682143286516 52.71487295812284 0  91.06906254351222 57.02083760363669 0  85.81199358272519 61.4733479087879 0  80.67960667988106 66.06902271253972 0  75.67579930062769 70.80437212218331 0  70.80437129287643 75.67580015310926 0  66.06902193673014 80.67960752263491 0  61.47334718684866 85.81199441168215 0  57.02083692524275 91.0690633672404 0  52.71487232786438 96.44682224262129 0  48.55872328070024 101.941187247437 0  44.55554591578033 107.5479860232332 0  40.7083801742321 113.2629608675606 0  37.02014754791168 119.0817718975441 0  33.49364883372994 125.000000381329 0  30.13156199866361 131.0131521097709 0  26.9364401549829 137.1166607985551 0  23.91070965524918 143.3058914868915 0  21.05666818346614 149.576144185037 0  18.37648306853811 155.9226573275967 0  15.8721895918909 162.3406114925245 0  13.54568948170046 168.8251329701392 0  11.39874945301878 175.3712974960928 0  9.432999857087736 181.9741340206533 0  7.649933466342702 188.6286284076045 0  6.050904301250966 195.3297273853278 0  4.637126656808988 202.0723421730917 0  3.409674127767772 208.8513525589684 0  2.369478824521138 215.6616106615248 0  1.517330660909465 222.4979448382452 0  0.8538767414496533 229.355163714981 0  0.3796208887135322 236.2280599646376 0  0.09492324266324204 243.1114144478261 0  0.0949232442452228 256.8885856095658 0  0.3796208935834784 263.7719401236316 0  0.8538767530323526 270.6448364248016 0  1.517330679476544 277.5020553295092 0  2.369478854618649 284.3383895555228 0  3.409674170191892 291.1486476952655 0  4.6371267162381 297.9276581311522 0  6.050904381420935 304.6702729724059 0  7.649933562385399 311.3713719716595 0  9.43299997979841 318.0258664133013 0  11.3987495994252 324.6287029719946 0  13.54568965885832 331.174867545904 0  15.87218979367188 337.6593890464085 0  18.37648329843151 344.0773432384132 0  21.05666844777872 350.423856417535 0  23.91070995156048 356.6941091410045 0  26.93644048988043 362.8833398632205 0  30.13156235982007 368.9868485575877 0  33.49364924138357 375.0000003247478 0  37.0201480006036 380.9182288389023 0  40.70838066758398 386.7370398875706 0  44.55554644477201 392.4520147396792 0  48.55872386086904 398.0588135419111 0  52.71487295981296 403.5531785693063 0  57.02083760525949 408.9309374584583 0  61.47334790862246 414.1880064170849 0  66.06902271205095 419.320393319588 0  70.80437211216579 424.3242006890749 0  75.67580013809859 429.195628692521 0  80.6796075127923 433.930978054209 0  85.81199439754931 438.5266528008431 0  91.06906334717917 442.9791630582355 0  96.44682221438322 447.2851276501571 0  101.9411872243843 451.441276702356 0  107.5479859945825 455.4444540643537 0  113.2629608446994 459.2916198108319 0  119.0817718768376 462.9798524393601 0  125.0000003647644 466.5063511567065 0  131.0131521012763 469.8684379967393 0  137.1166607840049 473.0635598376539 0  143.3058914748804 476.0892903390826 0  149.5761441732679 478.9433318113714 0  155.9226573130112 481.6235169255377 0  162.3406114779862 484.1278104026658 0  168.8251329570439 486.4543105138039 0  175.3712974805475 488.601250542119 0  181.9741340135204 490.5670001408953 0  188.6286284005059 492.3500665318597 0  195.3297273788229 493.9490956972913 0  202.0723421640089 495.3628733414168 0  208.8513525529672 496.5903258712308 0  215.6616106544547 497.6305211744985 0  222.4979448327038 498.4826693384772 0  229.3551637102845 499.1461232581612 0  236.2280599621369 499.6203791111485 0  243.1114144470173 499.9050767573145 0  155.2373389820306 474.8197567317462 0  25.36256300907667 153.9152755065208 0  432.3709625126712 412.6214396304305 0  6.013151705810699 246.637913163471 0  246.6379131630491 493.986848294322 0  338.6995838441862 22.68244767887072 0  477.3175523131281 338.6995838660569 0  493.9868482700757 246.6379131399102 0  246.6201155078769 6.218451882810491 0  417.6179310263282 72.7156044707053 0  102.2232990934413 445.0100869616822 0  63.66330858966404 92.20354579482142 0  391.3105220491464 50.73522820883105 0  72.79295043967942 418.0702734974704 0  448.290574428537 108.25674339002 0  402.4604651193511 440.7462829841712 0  97.55317348421397 59.11376320116034 0  136.7376477664901 33.58246472647134 0  363.3288394375288 465.6947312928271 0  44.0678766556007 381.0860953771871 0  469.6905266180034 142.3890690100806 0  22.68244791668644 338.6995843487432 0  338.699584349159 477.317552078365 0  173.389488083762 18.6681884918202 0  483.4809734778481 179.7121987795732 0  13.50237455842738 306.4709525540879 0  305.9825168523021 487.24416992
[...]
<PointData  Vectors="f_12"> 
<DataArray  type="Float64"  Name="f_12"  NumberOfComponents="3" format="ascii">0.0000000000000000e+00 7.4547202114164560e-02 1.6665356096269061e-02  0.0000000000000000e+00 3.5809786951069782e-02 3.9660021294959956e-02  0.0000000000000000e+00 4.3231280451361975e-01 8.2183188846786936e-03  0.0000000000000000e+00 1.5293736233053336e-02 2.9181356768772404e-01  0.0000000000000000e+00 4.3449218765195552e-01 8.2348332094057050e-03  0.0000000000000000e+00 4.3562423316513277e-01 8.2437788810082215e-03  0.0000000000000000e+00 4.3641118911533022e-01 8.2493590516822916e-03  0.0000000000000000e+00 4.3632285894947309e-01 8.2497553100137639e-03  0.0000000000000000e+00 4.3559815749449843e-01 8.2444310227837419e-03  0.0000000000000000e+00 4.3419589899477945e-01 8.2332400547919030e-03  0.0000000000000000e+00 4.3217120625449129e-01 8.2173435285573353e-03  0.0000000000000000e+00 4.2962729152428231e-01 8.1977862010866823e-03  0.0000000000000000e+00 4.2652512411444088e-01 8.1742469136792048e-03  0.0000000000000000e+00 4.2284039005474511e-01 8.1465898210778872e-03  0.0000000000000000e+00 4.1820721151127827e-01 8.1136987860144522e-03  0.0000000000000000e+00 4.1393783625392133e-01 8.0827087389806207e-03  0.0000000000000000e+00 4.0809006093145800e-01 8.0429719852210674e-03  0.0000000000000000e+00 4.0254864910687777e-01 8.0073108240065229e-03  0.0000000000000000e+00 3.9645731005603230e-01 7.9705600296608569e-03  0.0000000000000000e+00 3.8999234922265641e-01 7.9316146364044968e-03  0.0000000000000000e+00 3.8330227015025525e-01 7.8931374210236584e-03  0.0000000000000000e+00 3.7605057524240104e-01 7.8583016257811229e-03  0.0000000000000000e+00 3.6849291875770762e-01 7.8258027270376035e-03  0.0000000000000000e+00 3.6098275479500630e-01 7.7947548686216660e-03  0.0000000000000000e+00 3.5312618507171417e-01 7.7661610260669565e-03  0.0000000000000000e+00 3.4481367033760707e-01 7.7403834690751329e-03  0.0000000000000000e+00 3.3599309675898059e-01 7.7166060519716917e-03  0.0000000000000000e+00 3.2737848577196044e-01 7.6972558785855837e-03  0.0000000000000000e+00 3.1862302656476921e-01 7.6826145908480683e-03  0.0000000000000000e+00 3.0937895606599342e-01 7.6733513525211582e-03  0.0000000000000000e+00 3.0036047522155024e-01 7.6719934725602013e-03  0.0000000000000000e+00 2.9120062597092472e-01 7.6787485993391694e-03  0.0000000000000000e+00 2.8195652729289417e-01 7.6944800303010551e-03  0.0000000000000000e+00 2.7278207934813092e-01 7.7168701963846315e-03  0.0000000000000000e+00 2.6327962816495470e-01 7.7493549824733205e-03  0.0000000000000000e+00 2.5383525911765548e-01 7.7917616802664390e-03  0.0000000000000000e+00 2.4459867653967068e-01 7.8409856832914789e-03  0.0000000000000000e+00 2.3528486268742890e-01 7.9045172178310846e-03  0.0000000000000000e+00 2.2597473176469804e-01 7.9859454480441100e-03  0.0000000000000000e+00 2.1695125631770568e-01 8.0802443786111358e-03  0.0000000000000000e+00 2.0818850041412393e-01 8.1877202939300738e-03  0.0000000000000000e+00 1.9937084934624369e-01 8.3134885799083340e-03  0.0000000000000000e+00 1.9053911327451595e-01 8.4571949999116946e-03  0.0000000000000000e+00 1.8202871906638268e-01 8.6194407455588411e-03  0.0000000000000000e+00 1.7372934582190552e-01 8.8049297380146403e-03  0.0000000000000000e+00 1.6565487768315515e-01 9.0130052640859035e-03  0.0000000000000000e+00 1.5783641723858025e-01 9.2453484460212464e-03  0.0000000000000000e+00 1.5029335650624734e-01 9.5049232444581067e-03  0.0000000000000000e+00 1.4280792747858373e-01 9.7960663464140771e-03  0.0000000000000000e+00 1.3563224752682901e-01 1.0115369680959743e-02  0.0000000000000000e+00 1.2879638222809373e-01 1.0469549922722600e-02  0.0000000000000000e+00 1.2222354118847917e-01 1.0859539525395806e-02  0.0000000000000000e+00 1.1593331448084053e-01 1.1290644363967792e-02  0.0000000000000000e+00 1.0981283548165498e-01 1.1769040202869067e-02  0.0000000000000000e+00 1.0395660547444852e-01 1.2291071912779254e-02  0.0000000000000000e+00 9.8425282802121525e-02 1.2860681408775408e-02  0.0000000000000000e+00 9.3150799411464869e-02 1.3486559660737741e-02  0.0000000000000000e+00 8.8149820894950673e-02 1.4175053356435454e-02  0.0000000000000000e+00 8.3350657365515210e-02 1.4915790087615132e-02  0.0000000000000000e+00 7.8892687368384229e-02 1.5714887741241454e-02  0.0000000000000000e+00 7.0415011732280097e-02 1.7617178693619454e-02  0.0000000000000000e+00 6.6586114513034173e-02 1.8678592676120463e-02  0.0000000000000000e+00 6.3034567441328390e-02 1.9828636151239212e-02  0.0000000000000000e+00 5.9586140762231218e-02 2.1084504008488703e-02  0.0000000000000000e+00 5.6361783173616113e-02 2.2459554405429915e-02  0.0000000000000000e+00 5.3300514080315435e-02 2.3941850768343900e-02  0.0000000000000000e+00 5.0463005076842420e-02 2.5556210484815985e-02  0.0000000000000000e+00 4.7798796385641211e-02 2.7300212895076930e-02  0.0000000000000000e+00 4.5293478856259867e-02 2.9189615232352219e-02  0.0000000000000000e+00 4.2941583005864085e-02 3.1233146958888843e-02  0.0000000000000000e+00 4.0722613531264593e-02 3.3442817754850702e-02  0.0000000000000000e+00 3.8670787390044870e-02 3.5820281639865337e-02  0.0000000000000000e+00 3.6747804885137944e-02 3.8384600668647392e-02  0.0000000000000000e+00 3.4953291067033820e-02 4.1146781443902949e-02  0.0000000000000000e+00 3.3268984178150447e-02 4.4116907107822984e-02  0.0000000000000000e+00 3.1699028659419655e-02 4.7302563391161540e-02  0.0000000000000000e+00 3.0237334225740660e-02 5.0706971483663731e-02  0.0000000000000000e+00 2.8885042826450776e-02 5.4341156735588106e-02  0.0000000000000000e+00 2.7631059096769047e-02 5.8220643022296334e-02  0.0000000000000000e+00 2.6463125269958823e-02 6.2361952473214417e-02  0.0000000000000000e+00 2.5366362418327616e-02 6.6790320960111824e-02  0.0000000000000000e+00 2.4358807595145891e-02 7.1466124290171712e-02  0.0000000000000000e+00 2.3424069331257704e-02 7.6420853394033733e-02  0.0000000000000000e+00 2.2569324980858157e-02 8.1613599930491540e-02  0.0000000000000000e+00 2.1783371480978850e-02 8.7081370433483019e-02  0.0000000000000000e+00 2.1059339582933479e-02 9.2837769069840398e-02  0.0000000000000000e+00 2.0389469306555861e-02 9.8893274672833514e-02  0.0000000000000000e+00 1.9772792333344287e-02 1.0524770136772195e-01  0.0000000000000000e+00 1.9206104078751438e-02 1.1185693209372637e-01  0.0000000000000000e+00 1.8693393620041552e-02 1.1871204039252069e-01  0.0000000000000000e+00 1.8230775402678121e-02 1.2576621127128892e-01  0.0000000000000000e+00 1.7815265811337109e-02 1.3301813750220859e-01  0.0000000000000000e+00 1.7440013392535581e-02 1.4051947761581871e-01  0.0000000000000000e+00 1.7103907782392118e-02 1.4817203098634640e-01  0.0000000000000000e+00 1.6805233562354471e-02 1.5593047370978347e-01  0.0000000000000000e+00 1.6532299002574035e-02 1.6398452613938166e-01  0.0000000000000000e+00 1.6292140313886896e-02 1.7216513795715441e-01  0.0000000000000000e+00 1.6087741888405307e-02 1.8023177525637624e-01  0.0000000000000000e+00 1.5907173890961517e-02 1.8844047434815595e-01  0.0000000000000000e+00 1.5753068679754921e-02 1.9669865180694485e-01  0.0000000000000000e+00 1.5627718844602758e-02 2.0460438526664998e-01  0.0000000000000000e+00 1.5526898568610828e-02 2.1249350811230439e-01  0.0000000000000000e+00 1.5442093565449551e-02 2.2020024988433340e-01  0.0000000000000000e+00 1.5375304628736864e-02 2.2778148547178595e-01  0.0000000000000000e+00 1.5323141113861755e-02 2.3514370975966770e-01  0.0000000000000000e+00 1.5284737601822990e-02 2.4228956648730068e-01  0.0000000000000000e+00 1.5257950580144293e-02 2.4911558530397054e-01  0.0000000000000000e+00 1.5241675112315351e-02 2.5555183850159557e-01  0.0000000000000000e+00 1.5233308401704183e-02 2.6168085996126927e-01  0.0000000000000000e+00 1.5230776382866433e-02 2.6744502300701622e-01  0.0000000000000000e+00 1.5234320178992964e-02 2.7266071209406928e-01  0.0000000000000000e+00 1.5242330615620525e-02 2.7728244287676657e-01  0.0000000000000000e+00 1.5253581035596682e-02 2.8127070303184148e-01  0.0000000000000000e+00 1.5265339755282277e-02 2.8484618443984494e-01  0.0000000000000000e+00 1.5276846937106138e-02 2.8775895984678773e-01  0.0000000000000000e+00 1.5287220684463853e-02 2.9013151730792386e-01  0.0000000000000000e+00 1.5298769538300909e-02 2.9257861828601739e-01  0.0000000000000000e+00 1.5302856589082191e-02 2.9420262085479082e-01  0.0000000000000000e+00 1.5301783000566017e-02 2.9343478127419570e-01  0.0000000000000000e+00 1.5298105883704085e-02 2.9275615207824862e-01  0.0000000000000000e+00 1.5292362316726468e-02 2.9158823026408170e-01  0.0000000000000000e+00 1.5284967557919499e-02 2.8974066785625940e-01  0.0000000000000000e+00 1.5274821697136504e-02 2.8723383600903568e-01  0.0000000000000000e+00 1.5264546238914125e-02 2.8433857110886201e-01  0.0000000000000000e+00 1.5253808925413812e-02 2.8087808689977806e-01  0.0000000000000000e+00 1.5244376445318611e-02 2.7761549830547483e-01  0.0000000000000000e+00 1.5236862601970920e-02 2.7288537142562436e-01  0.0000000000000000e+00 1.5232332554965073e-02 2.6805312114925517e-01  0.0000000000000000e+00 1.5234364176228095e-02 2.6289567453685081e-01  0.0000000000000000e+00 1.5237630303982678e-02 2.5764017082096397e-01  0.0000000000000000e+00 1.5248208147868630e-02 2.5198305447957292e-01  0.0000000000000000e+00 1.5269045404081210e-02 2.4585330907746930e-01  0.0000000000000000e+00 1.5297101820665637e-02 2.3968714622227039e-01  0.0000000000000000e+00 1.5333636498485046e-02 2.3337994823799246e-01  0.0000000000000000e+00 1.5379687362835756e-02 2.2696394166456910e-01  0.0000000000000000e+00 1.5437306756006172e-02 2.2043525132098465e-01  0.0000000000000000e+00 1.5509067649166075e-02 2.1376518402907105e-01  0.0000000000000000e+00 1.5594837602976763e-02 2.0700005471084407e-01  0.0000000000000000e+00 1.5693068057480247e-02 2.0027167430214546e-01  0.0000000000000000e+00 1.5806773420716069e-02 1.9354889056373467e-01  0.0000000000000000e+00 1.5937595545114154e-02 1.8680531258314603e-01  0.0000000000000000e+00 1.6086637199780589e-02 1.8007778203463409e-01  0.0000000000000000e+00 1.6254620907535818e-02 1.7337793105671048e-01  0.0000000000000000e+00 1.6441791608108915e-02 1.6675650625081076e-01  0.0000000000000000e+00 1.6648407766254876e-02 1.6023096817273091e-01  0.0000000000000000e+00 1.6874195930183789e-02 1.5383974923143034e-01  0.0000000000000000e+00 1.7119129753792969e-02 1.4760589746768044e-01  0.0000000000000000e+00 1.7381953286840252e-02 1.4156743943208530e-01  0.0000000000000000e+00 1.7664790655609768e-02 1.3569195226991670e-01  0.0000000000000000e+00 1.7971578783853043e-02 1.2997566769869781e-01  0.0000000000000000e+00 1.8306534372257925e-02 1.2433942724745335e-01  0.0000000000000000e+00 1.8669463463713558e-02 1.1884762710238210e-01  0.0000000000000000e+00 1.9062036198672319e-02 1.1349818495431330e-01  0.0000000000000000e+00 1.9483222622373834e-02 1.0831167869541129e-01  0.0000000000000000e+00 1.9932919342495584e-02 1.0329847255404760e-01  0.0000000000000000e+00 2.0410440148484983e-02 9.8485056402754498e-02  0.0000000000000000e+00 2.0926352868035389e-02 9.3778530287110390e-02  0.0000000000000000e+00 2.1471104860515081e-02 8.9275063102298685e-02  0.0000000000000000e+00 2.2040601323954981e-02 8.5022344577971726e-02  0.0000000000000000e+00 2.2653363919963518e-02 8.0871198521172818e-02  0.0000000000000000e+00 2.3318723044522191e-02 7.6838056932459584e-02  0.0000000000000000e+00 2.4033589110288602e-02 7.2938095338067707e-02  0.0000000000000000e+00 2.4779383906658986e-02 6.9261677339492247e-02  0.0000000000000000e+00 2.5603978020899806e-02 6.5617742483379080e-02  0.0000000000000000e+00 2.6464874151751690e-02 6.2194886975211514e-02  0.0000000000000000e+00 2.7374799180126381e-02 5.8901951442624015e-02  0.0000000000000000e+00 2.8339015364408804e-02 5.5811852498007103e-02  0.0000000000000000e+00 2.9374438006494721e-02 5.2807256453126068e-02  0.0000000000000000e+00 3.0495980615621483e-02 4.9923965948258271e-02  0.0000000000000000e+00 3.1696166337596691e-02 4.7170228081675585e-02  0.0000000000000000e+00 3.2977859432010169e-02 4.4544965570906085e-02  0.0000000000000000e+00 3.4346149745889162e-02 4.2040400289512586e-02  0.0000000000000000e+00 3.7370335514324393e-02 3.7401477153623526e-02  0.0000000000000000e+00 3.9034645547225771e-02 3.5261415679799263e-02  0.0000000000000000e+00 4.0826146531247665e-02 3.3237458338851597e-02  0.0000000000000000e+00 4.2753062694054933e-02 3.1311355597057673e-02  0.0000000000000000e+00 4.4823137286911424e-02 2.9488722235870492e-02  0.0000000000000000e+00 4.7036625588424578e-02 2.7766037529856440e-02  0.0000000000000000e+00 4.9400377369001380e-02 2.6146260065426218e-02  0.0000000000000000e+00 5.1932234146404445e-02 2.4622425219129884e-02  0.0000000000000000e+00 5.4657567276662773e-02 2.3191229744194370e-02  0.0000000000000000e+00 5.7593772077317626e-02 2.1845663172763007e-02  0.0000000000000000e+00 6.0748234763862992e-02 2.0587952267443387e-02  0.0000000000000000e+00 6.4108628361107672e-02 1.9408822751256431e-02  0.0000000000000000e+00 6.7693494066106127e-02 1.8314011307940845e-02  0.0000000000000000e+00 7.1548701562705735e-02 1.7292287169106121e-02  0.0000000000000000e+00 7.5677876211920944e-02 1.6343607022445673e-02  0.0000000000000000e+00 8.0122397090691369e-02 1.5463872540319145e-02  0.0000000000000000e+00 8.4865178041228992e-02 1.4648504268951536e-02  0.0000000000000000e+00 8.9869780576764952e-02 1.3894248923944285e-02  0.0000000000000000e+00 9.5247764474596028e-02 1.3204471204603972e-02  0.0000000000000000e+00 1.0097931360478089e-01 1.2564464490226961e-02  0.0000000000000000e+00 1.0712993584203888e-01 1.1980441393938146e-02  0.0000000000000000e+00 1.1363591289284759e-01 1.1445949365681406e-02  0.0000000000000000e+00 1.2048622460497956e-01 1.0957370514305613e-02  0.0000000000000000e+00 1.2774548688105788e-01 1.0514561714046099e-02  0.0000000000000000e+00 1.3543667103712129e-01 1.0114459646514390e-02  0.0000000000000000e+00 1.4360476835877417e-01 9.7537977482069771e-03  0.0000000000000000e+00 1.5221231192145940e-01 9.4279515260612418e-03  0.0000000000000000e+00 1.6112401267552437e-01 9.1376597837688582e-03  0.0000000000000000e+00 1.7047850821167068e-01 8.8808029983135691e-03  0.0000000000000000e+00 1.8021913553450894e-01 8.6537343151900942e-03  0.0000000000000000e+00 1.9039156027113768e-01 8.4576077298067244e-03  0.0000000000000000e+00 2.0094681372832429e-01 8.2874687946205786e-03  0.0000000000000000e+00 2.1177553622587933e-01 8.1403709189004254e-03  0.0000000000000000e+00 2.2290006655664107e-01 8.0162697071367358e-03  0.0000000000000000e+00 2.3437198956235075e-01 7.9140436151841805e-03  0.0000000000000000e+00 2.4595447480716692e-01 7.8341340560667341e-03  0.0000000000000000e+00 2.5770031689781570e-01 7.7739060603439986e-03  0.0000000000000000e+00 2.6972428494717893e-01 7.7268463357922316e-03  0.0000000000000000e+00 2.8160694402745901e-01 7.6952832542577882e-03  0.0000000000000000e+00 2.9338941621496029e-01 7.6797901226103478e-03  0.0000000000000000e+00 3.0518643452305605e-01 7.6763284886091398e-03  0.0000000000000000e+00 3.1682296948455779e-01 7.6844337018383384e-03  0.0000000000000000e+00 3.2840692966656987e-01 7.7041751694052240e-03  0.0000000000000000e+00 3.3939728155615195e-01 7.7281556809686318e-03  0.0000000000000000e+00 3.5021957553168315e-01 7.7607961094908777e-03  0.0000000000000000e+00 3.6048310338068118e-01 7.7979476530602339e-03  0.0000000000000000e+00 3.7020521466980721e-01 7.8353143955664749e-03  0.0000000000000000e+00 3.7946098627190683e-01 7.8753046661878250e-03  0.0000000000000000e+00 3.8800801643398314e-01 7.9222560101163565e-03  0.0000000000000000e+00 3.9592844875445365e-01 7.9689478863752532e-03  0.0000000000000000e+00 4.0344850582414155e-01 8.0145512807731564e-03  0.0000000000000000e+00 4.1013102376209148e-01 8.0586346959463390e-03  0.0000000000000000e+00 4.1600361256847279e-01 8.1006748404773617e-03  0.0000000000000000e+00 4.2118696898024138e-01 8.1369391160846776e-03  0.0000000000000000e+00 4.2563325575402133e-01 8.1690320585169705e-03  0.0000000000000000e+00 4.2918789496327436e-01 8.1955776977805997e-03  0.0000000000000000e+00 3.2013094351717286e-01 7.6904732303574360e-03  0.0000000000000000e+00 2.1738404769762572e-02 8.7280055390170003e-02  0.0000000000000000e+00 2.6519315155468848e-01 7.7437076406445017e-03  0.0000000000000000e+00 3.5195707210112934e-02 4.0647400031715047e-02  0.0000000000000000e+00 4.2668365426971777e-01 8.1804691729678667e-03  0.0000000000000000e+00 1.5435683365311696e-02 2.2168753565517557e-01  0.0000000000000000e+00 1.5284263314506069e-01 9.4146179603954577e-03  0.0000000000000000e+00 7.2158036159369748e-02 1.7181654398605643e-02  0.0000000000000000e+00 1.5290194852538701e-02 2.8871086567492815e-01  0.0000000000000000e+00 1.8992663526420140e-02 1.1467368435201158e-01  0.0000000000000000e+00 2.1583979403933137e-01 8.0923408511156501e-03  0.0000000000000000e+00 1.7309536861542643e-02 1.4333748103677160e-01  0.0000000000000000e+00 1.6964062334811868e-02 1.5182920913755391e-01  0.0000000000000000e+00 1.5631259888221241e-01 9.2886049016654929e-03  0.0000000000000000e+00 2.3912704345141138e-02 7.3772120493906634e-02  0.0000000000000000e+00 3.2049051737039363e-01 7.6881939865505022e-03  0.0000000000000000e+00 1.5905333608728995e-02 1.8874761099891715e-01  0.0000000000000000e+00 1.5336690626970352e-02 2.3413693746949812e-01  0.0000000000000000e+00 3.7559751875708824e-01 7.8608607767455957e-03  0.0000000000000000e+00 1.0425625948264998e-01 1.2243714668739044e-02  0.0000000000000000e+00 3.0928566391428533e-02 4.9044373629716330e-02  0.0000000000000000e+00 6.9617789147058559e-02 1.7786382917556874e-02  0.0000000000000000e+00 4.0173352781016464e-01 8.0060568078442317e-03  0.0000000000000000e+00 1.5241249744281838e-02 2.6661840042237328e-01  0.0000000000000000e+00 4.1524862589640804e-02 3.2608770013014599e-02  0.0000000000000000e+00 5.3420014991064024e-02 2.3826071246466823e-02  0.0000000000000000e+00 4.2400413964680439e-01 8.1603301171116662e-03  0.0000000000000000e+00 3.8028510393283965e-01 7.8847904167759480e-03  0.0000000000000000e+00 2.6131772565010921e-02 6.3516246435954521e-02  0.0000000000000000e+00 1.5242723484490135e-02 2.6145821077939102e-01  0.0000000000000000e+00 1.1212745146008139e-01 1.1580155243122147e-02  0.0000000000000000e+00 2.1249608484627830e-01 8.1342980919679713e-03  0.0000000000000000e+00 1.5275583811448799e-02 2.8524494516261301e-01  0.0000000000000000e+00 5.1546499507651444e-02 2.4911712810477587e-02  0.0000000000000000e+00 4.3895457455562864e-02 3.0288354002927492e-02  0.0000000000000000e+00 4.3192574403957029e-01 8.2201932597943724e-03  0.0000000000000000e+00 1.6038762824676735e-02 1.8266316843818986e-01  0.0000000000000000e+00 1.9340854866917338e-02 1.1009758409131193e-01  0.0000000000000000e+00 4.0941178981177251e-01 8.0586273375203854e-03  0.0000000000000000e+00 2.7325935155433229e-01 7.7169027255903720e-03  0.0000000000000000e+00 3.0179662912320337e-02 5.0732125047266145e-02  0.0000000000000000e+00 1.5258435078114503e-02 2.7937209091281240e-01  0.0000000000000000e+00 9.0702622751469744e-02 1.3812236026051481e-02  0.0000000000000000e+00 3.4439026808764900e-01 7.7430267297568713e-03  0.0000000000000000e+00 1.3113921033658074e-01 1.0341875074553615e-02  0.0000000000000000e+00 1.5294403494078781e-02 2.9008660247625573e-01  0.0000000000000000e+00 1.5289316024691428e-02 2.4304037362432485e-01  0.0000000000000000e+00 6.1007402520367994e-02 2.0541318381010167e-02  0.0000000000000000e+00 2.0743674787294514e-02 9.5645070952624908e-02  0.0000000000000000e+00 3.5236244384695681e-01 7.7703422801461870e-03  0.0000000000000000e+00 2.3720538610897421e-01 7.8922831173025548e-03  0.0000000000000000e+00 1.3151392446654364e-01 1.0309314520087818e-02  0.0000000000000000e+00 1.5586244521130008e-02 2.0821425857418016e-01  0.0000000000000000e+00 8.7610548964866780e-02 1.4222282808929339e-02  0.0000000000000000e+00 2.3767617611666136e-02 7.4391031330189969e-02  0.0000000000000000e+00 1.8471996834405530e-01 8.5657947949779496e-03  0.0000000000