<?xml version="1.0"?>
<VTKFile type="UnstructuredGrid"  version="0.1"  >
<UnstructuredGrid>
<Piece  NumberOfPoints="4940" NumberOfCells="9650">
<Points>
<DataArray  type="Float64"  NumberOfComponents="3"  format="ascii">500 250 0  0 250 0  250 500 0  250 0 0  256.8885856082646 499.9050767557906 0  263.7719401218049 499.6203791065173 0  270.6448364229772 499.1461232471188 0  277.5020553257866 498.4826693209355 0  284.3383895508592 497.6305211460281 0  291.1486476865662 496.5903258312597 0  297.9276581259182 495.3628732847843 0  304.6702729675493 493.9490956196674 0  311.3713719748657 492.3500664368026 0  318.0258664141369 490.5670000199653 0  324.6287029687753 488.6012504015818 0  331.1748675330201 486.4543103455647 0  337.6593890460416 484.1278102064655 0  344.0773432429536 481.6235166997244 0  350.4238564271474 478.9433315480048 0  356.694109139292 476.0892900492477 0  362.88333985546 473.0635595140469 0  368.9868485575419 469.8684376402048 0  375.0000003153078 466.5063507640667 0  380.9182288257928 462.9798520074548 0  386.7370398729688 459.2916193419558 0  392.4520147244077 455.444453565817 0  398.0588135356345 451.4412761437442 0  403.5531785622926 447.285127045646 0  408.9309374414144 442.9791624087773 0  414.1880064015299 438.5266521049243 0  419.3203932989752 433.9309773069245 0  424.324200661095 429.1956279150535 0  429.1956286596235 424.3241998957182 0  433.9309780058756 419.3203925397119 0  438.5266527445345 414.1880056671062 0  442.9791630130591 408.9309367076756 0  447.2851276060475 403.5531778422888 0  451.4412766621026 398.0588128303826 0  455.4444540361634 392.4520140460735 0  459.2916197786263 386.7370392045948 0  462.9798524073514 380.9182281752347 0  466.5063511234856 374.9999996927758 0  469.8684379657123 368.9868479560565 0  473.0635598144817 362.8833392617846 0  476.0892903190255 356.6941085676214 0  478.9433317963513 350.4238558609745 0  481.6235169154735 344.0773427117675 0  484.12781039012 337.6593885555221 0  486.4543105028062 331.1748670749914 0  488.601250531677 324.6287025528375 0  490.5670001317469 318.0258660188321 0  492.3500665291326 311.3713716102628 0  493.949095695951 304.6702726271575 0  495.3628733416623 297.9276578347343 0  496.5903258712341 291.1486474470129 0  497.6305211749058 284.3383893426084 0  498.4826693388848 277.502055163614 0  499.1461232580606 270.6448362909296 0  499.6203791109319 263.7719400417897 0  499.9050767571306 256.8885855596534 0  499.9050767559877 243.1114143988867 0  499.6203791069493 236.2280598860241 0  499.1461232485393 229.3551635941651 0  498.4826693235677 222.4979446979962 0  497.6305211491849 215.6616104719064 0  496.5903258357701 208.8513523404629 0  495.3628732906988 202.0723419043604 0  493.9490956264813 195.3297270628552 0  492.3500664487791 188.6286280724281 0  490.5670000344809 181.9741336371959 0  488.6012504175981 175.3712970824318 0  486.4543103623226 168.8251325157939 0  484.1278102222298 162.3406109960628 0  481.6235167152198 155.9226567951971 0  478.9433315621651 149.5761436051346 0  476.0892900516498 143.3058908657982 0  473.063559513628 137.1166601437124 0  469.8684376406648 131.0131514433083 0  466.5063507675389 124.9999996907064 0  462.9798520124137 119.0817711822745 0  459.2916193464549 113.2629601339176 0  455.4444535642773 107.5479852733717 0  451.4412761528674 101.9411864767781 0  447.2851270583545 96.44682145403524 0  442.9791624165781 91.06906256805769 0  438.5266521117469 85.81199360630404 0  433.9309773156125 80.67960671046254 0  429.1956279150353 75.67579933888632 0  424.3241998888952 70.80437133373906 0  419.3203925223282 66.06902197812161 0  414.1880056411937 61.47334723289828 0  408.9309366751728 57.0208369601728 0  403.5531778009394 52.71487236176898 0  398.058812796452 48.55872331295853 0  392.4520140187753 44.55554594490843 0  386.7370391799677 40.70838020528396 0  380.9182281475119 37.02014757560744 0  374.9999996718656 33.49364886444181 0  368.9868479340393 30.13156202237255 0  362.8833392380029 26.93644017348339 0  356.6941085456942 23.91070967062674 0  350.4238558420009 21.0566681953261 0  344.0773426899492 18.37648307566465 0  337.6593885328982 15.87218960140942 0  331.1748670549786 13.54568949032341 0  324.6287025315056 11.39874946165088 0  318.0258660010876 9.432999863235466 0  311.3713716017894 7.649933468721599 0  304.6702726190621 6.050904302234756 0  297.9276578269805 4.637126656823085 0  291.148647441857 3.409674127905504 0  284.3383893425031 2.369478825079682 0  277.502055159398 1.517330660648639 0  270.6448362875833 0.853876741662134 0  263.7719400401456 0.3796208889774277 0  256.8885855592052 0.09492324285704967 0  243.1114143979462 0.09492324403817065 0  236.2280598850882 0.3796208931023841 0  229.3551635938215 0.8538767514891958 0  222.4979446968584 1.517330676558146 0  215.6616104703111 2.369478851036291 0  208.8513523382973 3.409674164591252 0  202.0723419066374 4.637126708856528 0  195.3297270659513 6.050904372824903 0  188.628628074828 7.649933550613184 0  181.9741336377093 9.432999965373938 0  175.3712970793675 11.39874958336037 0  168.8251325057572 13.54568964112298 0  162.340610986655 15.87218978129263 0  155.9226567874317 18.37648328793418 0  149.576143602509 21.05666843898663 0  143.3058908718157 23.91070994551046 0  137.1166601505524 26.93644048291054 0  131.0131514451933 30.13156235831508 0  124.9999996848412 33.49364923584736 0  119.0817711715717 37.0201479941652 0  113.2629601211624 40.70838066187849 0  107.5479852622251 44.55554644345162 0  101.9411864693332 48.55872385260452 0  96.44682143286516 52.71487295812284 0  91.06906254351222 57.02083760363669 0  85.81199358272519 61.4733479087879 0  80.67960667988106 66.06902271253972 0  75.67579930062769 70.80437212218331 0  70.80437129287643 75.67580015310926 0  66.06902193673014 80.67960752263491 0  61.47334718684866 85.81199441168215 0  57.02083692524275 91.0690633672404 0  52.71487232786438 96.44682224262129 0  48.55872328070024 101.941187247437 0  44.55554591578033 107.5479860232332 0  40.7083801742321 113.2629608675606 0  37.02014754791168 119.0817718975441 0  33.49364883372994 125.000000381329 0  30.13156199866361 131.0131521097709 0  26.9364401549829 137.1166607985551 0  23.91070965524918 143.3058914868915 0  21.05666818346614 149.576144185037 0  18.37648306853811 155.9226573275967 0  15.8721895918909 162.3406114925245 0  13.54568948170046 168.8251329701392 0  11.39874945301878 175.3712974960928 0  9.432999857087736 181.9741340206533 0  7.649933466342702 188.6286284076045 0  6.050904301250966 195.3297273853278 0  4.637126656808988 202.0723421730917 0  3.409674127767772 208.8513525589684 0  2.369478824521138 215.6616106615248 0  1.517330660909465 222.4979448382452 0  0.8538767414496533 229.355163714981 0  0.3796208887135322 236.2280599646376 0  0.09492324266324204 243.1114144478261 0  0.0949232442452228 256.8885856095658 0  0.3796208935834784 263.7719401236316 0  0.8538767530323526 270.6448364248016 0  1.517330679476544 277.5020553295092 0  2.369478854618649 284.3383895555228 0  3.409674170191892 291.1486476952655 0  4.6371267162381 297.9276581311522 0  6.050904381420935 304.6702729724059 0  7.649933562385399 311.3713719716595 0  9.43299997979841 318.0258664133013 0  11.3987495994252 324.6287029719946 0  13.54568965885832 331.174867545904 0  15.87218979367188 337.6593890464085 0  18.37648329843151 344.0773432384132 0  21.05666844777872 350.423856417535 0  23.91070995156048 356.6941091410045 0  26.93644048988043 362.8833398632205 0  30.13156235982007 368.9868485575877 0  33.49364924138357 375.0000003247478 0  37.0201480006036 380.9182288389023 0  40.70838066758398 386.7370398875706 0  44.55554644477201 392.4520147396792 0  48.55872386086904 398.0588135419111 0  52.71487295981296 403.5531785693063 0  57.02083760525949 408.9309374584583 0  61.47334790862246 414.1880064170849 0  66.06902271205095 419.320393319588 0  70.80437211216579 424.3242006890749 0  75.67580013809859 429.195628692521 0  80.6796075127923 433.930978054209 0  85.81199439754931 438.5266528008431 0  91.06906334717917 442.9791630582355 0  96.44682221438322 447.2851276501571 0  101.9411872243843 451.441276702356 0  107.5479859945825 455.4444540643537 0  113.2629608446994 459.2916198108319 0  119.0817718768376 462.9798524393601 0  125.0000003647644 466.5063511567065 0  131.0131521012763 469.8684379967393 0  137.1166607840049 473.0635598376539 0  143.3058914748804 476.0892903390826 0  149.5761441732679 478.9433318113714 0  155.9226573130112 481.6235169255377 0  162.3406114779862 484.1278104026658 0  168.8251329570439 486.4543105138039 0  175.3712974805475 488.601250542119 0  181.9741340135204 490.5670001408953 0  188.6286284005059 492.3500665318597 0  195.3297273788229 493.9490956972913 0  202.0723421640089 495.3628733414168 0  208.8513525529672 496.5903258712308 0  215.6616106544547 497.6305211744985 0  222.4979448327038 498.4826693384772 0  229.3551637102845 499.1461232581612 0  236.2280599621369 499.6203791111485 0  243.1114144470173 499.9050767573145 0  155.2373389820306 474.8197567317462 0  25.36256300907667 153.9152755065208 0  432.3709625126712 412.6214396304305 0  6.013151705810699 246.637913163471 0  246.6379131630491 493.986848294322 0  338.6995838441862 22.68244767887072 0  477.3175523131281 338.6995838660569 0  493.9868482700757 246.6379131399102 0  246.6201155078769 6.218451882810491 0  417.6179310263282 72.7156044707053 0  102.2232990934413 445.0100869616822 0  63.66330858966404 92.20354579482142 0  391.3105220491464 50.73522820883105 0  72.79295043967942 418.0702734974704 0  448.290574428537 108.25674339002 0  402.4604651193511 440.7462829841712 0  97.55317348421397 59.11376320116034 0  136.7376477664901 33.58246472647134 0  363.3288394375288 465.6947312928271 0  44.0678766556007 381.0860953771871 0  469.6905266180034 142.3890690100806 0  22.68244791668644 338.6995843487432 0  338.699584349159 477.317552078365 0  173.389488083762 18.6681884918202 0  483.4809734778481 179.7121987795732 0  13.50237455842738 306.4709525540879 0  305.9825168523021 487.24416992
[...]
<PointData  Vectors="f_12"> 
<DataArray  type="Float64"  Name="f_12"  NumberOfComponents="3" format="ascii">0.0000000000000000e+00 8.8567003435839431e-01 2.4293681984786639e-02  0.0000000000000000e+00 7.3621476162303223e-01 1.3586375621331031e-02  0.0000000000000000e+00 9.3077327927877895e-01 1.2295448203421756e-01  0.0000000000000000e+00 3.1162600427062598e-01 7.5754930675786978e-03  0.0000000000000000e+00 9.3046894957354487e-01 1.2364940295209093e-01  0.0000000000000000e+00 9.3028814353018774e-01 1.2406069188056065e-01  0.0000000000000000e+00 9.3018333290146604e-01 1.2429920259970630e-01  0.0000000000000000e+00 9.3018828785961516e-01 1.2428745816637753e-01  0.0000000000000000e+00 9.3028654087291685e-01 1.2406399013466876e-01  0.0000000000000000e+00 9.3048049849700265e-01 1.2362302946869691e-01  0.0000000000000000e+00 9.3076629927211962e-01 1.2297174493770237e-01  0.0000000000000000e+00 9.3113507655670713e-01 1.2212836252146975e-01  0.0000000000000000e+00 9.3158644598914531e-01 1.2109158800909989e-01  0.0000000000000000e+00 9.3212084527429206e-01 1.1985718924457717e-01  0.0000000000000000e+00 9.3275668947806856e-01 1.1837829563741699e-01  0.0000000000000000e+00 9.3340506534763357e-01 1.1686067479543774e-01  0.0000000000000000e+00 9.3417552265338577e-01 1.1503684384140261e-01  0.0000000000000000e+00 9.3494212609670513e-01 1.1320110902234602e-01  0.0000000000000000e+00 9.3574853424550286e-01 1.1124547902295130e-01  0.0000000000000000e+00 9.3657281308589080e-01 1.0921869213769526e-01  0.0000000000000000e+00 9.3739258093674271e-01 1.0716748800961430e-01  0.0000000000000000e+00 9.3822097562244100e-01 1.0504876182664147e-01  0.0000000000000000e+00 9.3904623503462825e-01 1.0289211988264511e-01  0.0000000000000000e+00 9.3985516981255302e-01 1.0072795351623583e-01  0.0000000000000000e+00 9.4067311180677471e-01 9.8481668573368361e-02  0.0000000000000000e+00 9.4151199005764108e-01 9.6107106980656165e-02  0.0000000000000000e+00 9.4237335241170828e-01 9.3589342354362712e-02  0.0000000000000000e+00 9.4321337217475532e-01 9.1037885681386349e-02  0.0000000000000000e+00 9.4402941027425091e-01 8.8439596792976569e-02  0.0000000000000000e+00 9.4481567483133977e-01 8.5789915319800167e-02  0.0000000000000000e+00 9.4552147426795452e-01 8.3232681826977989e-02  0.0000000000000000e+00 9.4615006229448773e-01 8.0737290618494495e-02  0.0000000000000000e+00 9.4670326698356033e-01 7.8293031617406667e-02  0.0000000000000000e+00 9.4718587520803488e-01 7.5871618263115850e-02  0.0000000000000000e+00 9.4760878175068186e-01 7.3378478835750105e-02  0.0000000000000000e+00 9.4795875064962409e-01 7.0844117863740896e-02  0.0000000000000000e+00 9.4822011487113711e-01 6.8303729485105061e-02  0.0000000000000000e+00 9.4836869221850706e-01 6.5775817373443346e-02  0.0000000000000000e+00 9.4838033236830488e-01 6.3326837713650372e-02  0.0000000000000000e+00 9.4825082788344717e-01 6.1008268334818747e-02  0.0000000000000000e+00 9.4797897262071573e-01 5.8778008660305907e-02  0.0000000000000000e+00 9.4755121762341787e-01 5.6536334354473229e-02  0.0000000000000000e+00 9.4695026204046062e-01 5.4261920311911828e-02  0.0000000000000000e+00 9.4615825630727846e-01 5.2024951498291616e-02  0.0000000000000000e+00 9.4515697412718924e-01 4.9854484789745475e-02  0.0000000000000000e+00 9.4394608503683863e-01 4.7784923071510277e-02  0.0000000000000000e+00 9.4251299518485476e-01 4.5823146498183281e-02  0.0000000000000000e+00 9.4083376303075505e-01 4.3931581788304509e-02  0.0000000000000000e+00 9.3883507984384973e-01 4.2028598802605011e-02  0.0000000000000000e+00 9.3653162128602918e-01 4.0157844701745229e-02  0.0000000000000000e+00 9.3390791911219795e-01 3.8364242880942923e-02  0.0000000000000000e+00 9.3098527120537711e-01 3.6673410288099763e-02  0.0000000000000000e+00 9.2773820023700837e-01 3.5080437636409681e-02  0.0000000000000000e+00 9.2408647317845150e-01 3.3534629676813935e-02  0.0000000000000000e+00 9.1998580278184050e-01 3.2020068265150033e-02  0.0000000000000000e+00 9.1542885496931392e-01 3.0555250122831491e-02  0.0000000000000000e+00 9.1040779512939118e-01 2.9154430333531042e-02  0.0000000000000000e+00 9.0497370311090541e-01 2.7839141462252626e-02  0.0000000000000000e+00 8.9910478209105016e-01 2.6592425621599837e-02  0.0000000000000000e+00 8.9288771195760053e-01 2.5443133831864789e-02  0.0000000000000000e+00 8.7807822421514548e-01 2.3170534022163045e-02  0.0000000000000000e+00 8.6994827515170181e-01 2.2128943053111510e-02  0.0000000000000000e+00 8.6143983198723983e-01 2.1182813136420221e-02  0.0000000000000000e+00 8.5226940666298134e-01 2.0265920544658846e-02  0.0000000000000000e+00 8.4245859968043380e-01 1.9391711814349233e-02  0.0000000000000000e+00 8.3191867593542379e-01 1.8539951719248594e-02  0.0000000000000000e+00 8.2088107772608632e-01 1.7747637334002433e-02  0.0000000000000000e+00 8.0945368988053668e-01 1.7017802658797147e-02  0.0000000000000000e+00 7.9757601771023823e-01 1.6336358011326272e-02  0.0000000000000000e+00 7.8509174280160221e-01 1.5686981917719653e-02  0.0000000000000000e+00 7.7188304202826385e-01 1.5056911638744088e-02  0.0000000000000000e+00 7.5825259569785841e-01 1.4465995927023979e-02  0.0000000000000000e+00 7.4433433123352510e-01 1.3919426239853877e-02  0.0000000000000000e+00 7.3028097213293375e-01 1.3420293361116987e-02  0.0000000000000000e+00 7.1591791968312890e-01 1.2952744196313917e-02  0.0000000000000000e+00 7.0108346001173594e-01 1.2506158624521124e-02  0.0000000000000000e+00 6.8579883835585675e-01 1.2077413077775987e-02  0.0000000000000000e+00 6.7037052624177518e-01 1.1678464583472029e-02  0.0000000000000000e+00 6.5508366077756852e-01 1.1316250407446616e-02  0.0000000000000000e+00 6.3997860400295903e-01 1.0986772632529701e-02  0.0000000000000000e+00 6.2479773926941662e-01 1.0678223716358504e-02  0.0000000000000000e+00 6.0950707437246998e-01 1.0387346665442419e-02  0.0000000000000000e+00 5.9399378030847894e-01 1.0108650522982793e-02  0.0000000000000000e+00 5.7867102535843817e-01 9.8506037643643438e-03  0.0000000000000000e+00 5.6377161655539598e-01 9.6176941819946168e-03  0.0000000000000000e+00 5.4942838534602834e-01 9.4102258715107676e-03  0.0000000000000000e+00 5.3549813802892432e-01 9.2225733075357759e-03  0.0000000000000000e+00 5.2172720283442309e-01 9.0476302505819138e-03  0.0000000000000000e+00 5.0799608039589017e-01 8.8802801508318843e-03  0.0000000000000000e+00 4.9438782612825610e-01 8.7233065768212038e-03  0.0000000000000000e+00 4.8119451288702392e-01 8.5801244202104703e-03  0.0000000000000000e+00 4.6866656783037758e-01 8.4538771892748981e-03  0.0000000000000000e+00 4.5683987340805304e-01 8.3441628983333006e-03  0.0000000000000000e+00 4.4573391555751629e-01 8.2486268496497154e-03  0.0000000000000000e+00 4.3520691019264185e-01 8.1639605343808552e-03  0.0000000000000000e+00 4.2479674990733202e-01 8.0834967840640141e-03  0.0000000000000000e+00 4.1459564510465435e-01 8.0086589872669142e-03  0.0000000000000000e+00 4.0487920250796811e-01 7.9420883887238621e-03  0.0000000000000000e+00 3.9541879282374987e-01 7.8805760133436181e-03  0.0000000000000000e+00 3.8640797191387516e-01 7.8265564216108072e-03  0.0000000000000000e+00 3.7832913939056406e-01 7.7830545585601072e-03  0.0000000000000000e+00 3.7086186065915849e-01 7.7481618425078716e-03  0.0000000000000000e+00 3.6404069878514500e-01 7.7187429915340708e-03  0.0000000000000000e+00 3.5772445282821663e-01 7.6941810979971300e-03  0.0000000000000000e+00 3.5188092248795355e-01 7.6731648977123304e-03  0.0000000000000000e+00 3.4641500362842531e-01 7.6550059755574234e-03  0.0000000000000000e+00 3.4133101565554758e-01 7.6392786923280189e-03  0.0000000000000000e+00 3.3663261823891522e-01 7.6258328755252833e-03  0.0000000000000000e+00 3.3223252306072676e-01 7.6140172043820276e-03  0.0000000000000000e+00 3.2815172369010231e-01 7.6034274417388272e-03  0.0000000000000000e+00 3.2450301162888151e-01 7.5948920855055330e-03  0.0000000000000000e+00 3.2130885456459135e-01 7.5884297581121710e-03  0.0000000000000000e+00 3.1858588255871023e-01 7.5843272950912735e-03  0.0000000000000000e+00 3.1618320917597981e-01 7.5810262893328227e-03  0.0000000000000000e+00 3.1425538416666143e-01 7.5785080278401003e-03  0.0000000000000000e+00 3.1270856303720396e-01 7.5764587255789202e-03  0.0000000000000000e+00 3.1113910821000618e-01 7.5760198567460515e-03  0.0000000000000000e+00 3.1009162515036237e-01 7.5725048946542854e-03  0.0000000000000000e+00 3.1057863760174931e-01 7.5747700671724141e-03  0.0000000000000000e+00 3.1099871968938925e-01 7.5750988605400990e-03  0.0000000000000000e+00 3.1173632411933611e-01 7.5756081167167710e-03  0.0000000000000000e+00 3.1292318065776886e-01 7.5773066508886830e-03  0.0000000000000000e+00 3.1454644776485191e-01 7.5796453644018102e-03  0.0000000000000000e+00 3.1644445400028504e-01 7.5822323786298301e-03  0.0000000000000000e+00 3.1874060907826535e-01 7.5857575955670066e-03  0.0000000000000000e+00 3.2093875390638460e-01 7.5881755258289637e-03  0.0000000000000000e+00 3.2416042991809052e-01 7.5951557207161596e-03  0.0000000000000000e+00 3.2750119574643755e-01 7.6027045396504372e-03  0.0000000000000000e+00 3.3111469588259990e-01 7.6117252092796151e-03  0.0000000000000000e+00 3.3483512462503773e-01 7.6203505335078799e-03  0.0000000000000000e+00 3.3889708912569028e-01 7.6311193203949333e-03  0.0000000000000000e+00 3.4337323102900641e-01 7.6449105186629941e-03  0.0000000000000000e+00 3.4796248757297316e-01 7.6594171633153421e-03  0.0000000000000000e+00 3.5276413795627198e-01 7.6750161275232365e-03  0.0000000000000000e+00 3.5780621653648115e-01 7.6925308015062385e-03  0.0000000000000000e+00 3.6315657907015214e-01 7.7129984408486800e-03  0.0000000000000000e+00 3.6892332232812225e-01 7.7374223822241255e-03  0.0000000000000000e+00 3.7511248601192876e-01 7.7659408452828366e-03  0.0000000000000000e+00 3.8165252833331809e-01 7.7983608700543088e-03  0.0000000000000000e+00 3.8860077626174028e-01 7.8360620002248527e-03  0.0000000000000000e+00 3.9597366653797061e-01 7.8795504685506817e-03  0.0000000000000000e+00 4.0369019220346369e-01 7.9285411465220522e-03  0.0000000000000000e+00 4.1166975110974963e-01 7.9824090910120514e-03  0.0000000000000000e+00 4.1979260876199836e-01 8.0401523837211660e-03  0.0000000000000000e+00 4.2800380938191757e-01 8.1010034932083880e-03  0.0000000000000000e+00 4.3627375722058687e-01 8.1647296698668190e-03  0.0000000000000000e+00 4.4464898509884332e-01 8.2318319855631521e-03  0.0000000000000000e+00 4.5318901947093315e-01 8.3030748759422221e-03  0.0000000000000000e+00 4.6205991641403449e-01 8.3812142582630339e-03  0.0000000000000000e+00 4.7137505500881338e-01 8.4690624782026210e-03  0.0000000000000000e+00 4.8124924768863614e-01 8.5682425841916016e-03  0.0000000000000000e+00 4.9152438836613016e-01 8.6778068464410767e-03  0.0000000000000000e+00 5.0206224908071773e-01 8.7963125849288004e-03  0.0000000000000000e+00 5.1266799164602250e-01 8.9205371704451034e-03  0.0000000000000000e+00 5.2321964691891720e-01 9.0489238116835437e-03  0.0000000000000000e+00 5.3366387422111872e-01 9.1811354582006406e-03  0.0000000000000000e+00 5.4432233927950868e-01 9.3216882113270391e-03  0.0000000000000000e+00 5.5513377990586421e-01 9.4712720054497251e-03  0.0000000000000000e+00 5.6613796752317835e-01 9.6321820394082939e-03  0.0000000000000000e+00 5.7770832398525385e-01 9.8112933921841311e-03  0.0000000000000000e+00 5.8975800310246107e-01 1.0010886592931922e-02  0.0000000000000000e+00 6.0200494824748296e-01 1.0225293209020827e-02  0.0000000000000000e+00 6.1393805609809771e-01 1.0443249737281269e-02  0.0000000000000000e+00 6.2606001829529567e-01 1.0676607039516896e-02  0.0000000000000000e+00 6.3786183324072132e-01 1.0913701323326069e-02  0.0000000000000000e+00 6.4975622859244808e-01 1.1164839295585365e-02  0.0000000000000000e+00 6.6180142915293616e-01 1.1439237101376650e-02  0.0000000000000000e+00 6.7430144347937471e-01 1.1742795904307258e-02  0.0000000000000000e+00 6.8708638123282550e-01 1.2077694841904855e-02  0.0000000000000000e+00 6.9978982056370664e-01 1.2433352270404751e-02  0.0000000000000000e+00 7.1217964480393436e-01 1.2800861185791641e-02  0.0000000000000000e+00 7.2425978491425025e-01 1.3181412497652855e-02  0.0000000000000000e+00 7.4822689757580474e-01 1.4026510123441834e-02  0.0000000000000000e+00 7.6032547578594167e-01 1.4510827815458798e-02  0.0000000000000000e+00 7.7237098299966112e-01 1.5038939630892747e-02  0.0000000000000000e+00 7.8410637012259965e-01 1.5595477265513417e-02  0.0000000000000000e+00 7.9538000940978459e-01 1.6174541369938351e-02  0.0000000000000000e+00 8.0625078333596245e-01 1.6782551973001224e-02  0.0000000000000000e+00 8.1688214446359320e-01 1.7438453161493169e-02  0.0000000000000000e+00 8.2737019673196355e-01 1.8158869201827771e-02  0.0000000000000000e+00 8.3761730843318960e-01 1.8944222813914269e-02  0.0000000000000000e+00 8.4741530392274078e-01 1.9778648946389078e-02  0.0000000000000000e+00 8.5663656436187230e-01 2.0648931631567839e-02  0.0000000000000000e+00 8.6533058930776563e-01 2.1560227061730053e-02  0.0000000000000000e+00 8.7361877275979605e-01 2.2543154651256673e-02  0.0000000000000000e+00 8.8157885977425721e-01 2.3620714313059343e-02  0.0000000000000000e+00 8.8907832534518971e-01 2.4773940749918916e-02  0.0000000000000000e+00 8.9603527286920026e-01 2.5988700148345187e-02  0.0000000000000000e+00 9.0244459807361155e-01 2.7258749606283834e-02  0.0000000000000000e+00 9.0834897461076558e-01 2.8600419738854306e-02  0.0000000000000000e+00 9.1385510528084468e-01 3.0065284634279068e-02  0.0000000000000000e+00 9.1891909170625341e-01 3.1632407653113911e-02  0.0000000000000000e+00 9.2349696589847052e-01 3.3282646995025304e-02  0.0000000000000000e+00 9.2757614713722103e-01 3.4992065410934990e-02  0.0000000000000000e+00 9.3122117653669245e-01 3.6790877720880216e-02  0.0000000000000000e+00 9.3448586160342684e-01 3.8730766423914355e-02  0.0000000000000000e+00 9.3736815925841266e-01 4.0805808701775872e-02  0.0000000000000000e+00 9.3985563916821524e-01 4.2971827136902258e-02  0.0000000000000000e+00 9.4197190374228024e-01 4.5200458267300299e-02  0.0000000000000000e+00 9.4373112050309105e-01 4.7505804357890431e-02  0.0000000000000000e+00 9.4518299919936333e-01 4.9969326773423813e-02  0.0000000000000000e+00 9.4633831010113978e-01 5.2572223496829711e-02  0.0000000000000000e+00 9.4721001229526269e-01 5.5270478153888310e-02  0.0000000000000000e+00 9.4782149112740233e-01 5.8013826971086452e-02  0.0000000000000000e+00 9.4819965823152952e-01 6.0799194023773317e-02  0.0000000000000000e+00 9.4835408643466002e-01 6.3700205875110438e-02  0.0000000000000000e+00 9.4829308025523662e-01 6.6758927076382632e-02  0.0000000000000000e+00 9.4804287426584566e-01 6.9893629812687971e-02  0.0000000000000000e+00 9.4763713209624445e-01 7.3041991409679083e-02  0.0000000000000000e+00 9.4710459669884484e-01 7.6188038474860192e-02  0.0000000000000000e+00 9.4646261469259529e-01 7.9301653278762679e-02  0.0000000000000000e+00 9.4570093803005761e-01 8.2457451618454233e-02  0.0000000000000000e+00 9.4481832474769711e-01 8.5705833918846702e-02  0.0000000000000000e+00 9.4383960584149540e-01 8.8996155951184597e-02  0.0000000000000000e+00 9.4279209467419844e-01 9.2277890819907671e-02  0.0000000000000000e+00 9.4174332597418964e-01 9.5399862777825611e-02  0.0000000000000000e+00 9.4069119551860370e-01 9.8394948327053547e-02  0.0000000000000000e+00 9.3965959093622364e-01 1.0122393982591785e-01  0.0000000000000000e+00 9.3865204710338201e-01 1.0390467303793952e-01  0.0000000000000000e+00 9.3765376822651247e-01 1.0648877453837077e-01  0.0000000000000000e+00 9.3666395127389146e-01 1.0897988956825164e-01  0.0000000000000000e+00 9.3568426312388520e-01 1.1139062530558695e-01  0.0000000000000000e+00 9.3472541076404836e-01 1.1371124832609585e-01  0.0000000000000000e+00 9.3383449346396930e-01 1.1583555909553404e-01  0.0000000000000000e+00 9.3302760347214697e-01 1.1773557572868294e-01  0.0000000000000000e+00 9.3231080132006572e-01 1.1940864485925734e-01  0.0000000000000000e+00 9.3169721056415000e-01 1.2083121010745429e-01  0.0000000000000000e+00 9.3119547338238895e-01 1.2198661964703049e-01  0.0000000000000000e+00 9.4341718478828984e-01 9.0333072171422280e-02  0.0000000000000000e+00 5.6017293736849683e-01 9.5481515299294262e-03  0.0000000000000000e+00 9.4747910092457144e-01 7.4180509009256546e-02  0.0000000000000000e+00 7.3115354512991237e-01 1.3416389102159854e-02  0.0000000000000000e+00 9.3123907605319223e-01 1.2188195328606428e-01  0.0000000000000000e+00 3.6273656569217716e-01 7.7191347485082848e-03  0.0000000000000000e+00 9.4156207041494577e-01 4.4724911997763378e-02  0.0000000000000000e+00 8.8175359981044055e-01 2.3690055477552593e-02  0.0000000000000000e+00 3.1361352581469365e-01 7.5869592509802972e-03  0.0000000000000000e+00 5.0219825092515558e-01 8.8155428976353072e-03  0.0000000000000000e+00 9.4828392371459513e-01 6.1991518023801179e-02  0.0000000000000000e+00 4.5063059385918092e-01 8.2863688125954290e-03  0.0000000000000000e+00 4.4060458233938121e-01 8.2103355583058660e-03  0.0000000000000000e+00 9.4288260073033658e-01 4.6336877584777975e-02  0.0000000000000000e+00 6.0214550925895594e-01 1.0255281320423613e-02  0.0000000000000000e+00 9.4371275285520673e-01 8.9454326239903098e-02  0.0000000000000000e+00 3.9378634937998463e-01 7.8720636864932341e-03  0.0000000000000000e+00 3.5217199981693764e-01 7.6789029087139639e-03  0.0000000000000000e+00 9.3803780794205838e-01 1.0551494364564273e-01  0.0000000000000000e+00 9.2150370364137768e-01 3.2541993864526733e-02  0.0000000000000000e+00 6.9322859614202748e-01 1.2283464312965385e-02  0.0000000000000000e+00 8.7773964242080094e-01 2.3084957500350396e-02  0.0000000000000000e+00 9.3476760404088977e-01 1.1361531400949992e-01  0.0000000000000000e+00 3.2843012437548580e-01 7.6126773928332546e-03  0.0000000000000000e+00 7.7699799149881521e-01 1.5296079609638736e-02  0.0000000000000000e+00 8.3303377449499738e-01 1.8589171719162995e-02  0.0000000000000000e+00 9.3159451063412735e-01 1.2106701292134917e-01  0.0000000000000000e+00 9.3732388646223219e-01 1.0731747625863708e-01  0.0000000000000000e+00 6.3320662817026718e-01 1.0823573015423799e-02  0.0000000000000000e+00 3.3229419221465323e-01 7.6211353702860781e-03  0.0000000000000000e+00 9.2573781343395012e-01 3.4212951623538657e-02  0.0000000000000000e+00 9.4814945694507657e-01 6.0085141571393601e-02  0.0000000000000000e+00 3.1582979401606021e-01 7.5883642733319450e-03  0.0000000000000000e+00 8.2544432164522685e-01 1.8066239199101362e-02  0.0000000000000000e+00 7.9038653522279256e-01 1.5917195465394038e-02  0.0000000000000000e+00 9.3049265097746892e-01 1.2359002615151123e-01  0.0000000000000000e+00 4.0193917213895042e-01 7.9269911435101773e-03  0.0000000000000000e+00 5.0892052228699636e-01 8.8805732719130608e-03  0.0000000000000000e+00 9.3364132136004674e-01 1.1628644559032017e-01  0.0000000000000000e+00 9.4686380273868198e-01 7.7410186430126690e-02  0.0000000000000000e+00 6.8337366164522140e-01 1.1983662729500192e-02  0.0000000000000000e+00 3.1980712446477666e-01 7.5950651912387651e-03  0.0000000000000000e+00 9.0806579273245913e-01 2.8572295913004826e-02  0.0000000000000000e+00 9.4130759863269409e-01 9.6681311672710282e-02  0.0000000000000000e+00 9.3505828855693773e-01 3.9121572443824928e-02  0.0000000000000000e+00 3.1270884577598052e-01 7.5841898063915584e-03  0.0000000000000000e+00 3.4577897335242586e-01 7.6586443155201543e-03  0.0000000000000000e+00 8.5652225136494975e-01 2.0679211556540924e-02  0.0000000000000000e+00 5.4276411694971760e-01 9.3216634705144633e-03  0.0000000000000000e+00 9.4029767272074782e-01 9.9475536695519437e-02  0.0000000000000000e+00 9.4832636796953262e-01 6.6663596639081169e-02  0.0000000000000000e+00 9.3605099081860133e-01 3.9813019173520536e-02  0.0000000000000000e+00 3.7399632502346047e-01 7.7667090863583676e-03  0.0000000000000000e+00 9.0583074349927573e-01 2.8005947755290035e-02  0.0000000000000000e+00 5.9732991918919820e-01 1.0147105048604768e-02  0.0000000000000000e+00 9.4650209118048101e-01 5.2945014106657036e-02  0.0000000000