<?xml version="1.0"?>
<VTKFile type="UnstructuredGrid"  version="0.1"  >
<UnstructuredGrid>
<Piece  NumberOfPoints="4940" NumberOfCells="9650">
<Points>
<DataArray  type="Float64"  NumberOfComponents="3"  format="ascii">500 250 0  0 250 0  250 500 0  250 0 0  256.8885856082646 499.9050767557906 0  263.7719401218049 499.6203791065173 0  270.6448364229772 499.1461232471188 0  277.5020553257866 498.4826693209355 0  284.3383895508592 497.6305211460281 0  291.1486476865662 496.5903258312597 0  297.9276581259182 495.3628732847843 0  304.6702729675493 493.9490956196674 0  311.3713719748657 492.3500664368026 0  318.0258664141369 490.5670000199653 0  324.6287029687753 488.6012504015818 0  331.1748675330201 486.4543103455647 0  337.6593890460416 484.1278102064655 0  344.0773432429536 481.6235166997244 0  350.4238564271474 478.9433315480048 0  356.694109139292 476.0892900492477 0  362.88333985546 473.0635595140469 0  368.9868485575419 469.8684376402048 0  375.0000003153078 466.5063507640667 0  380.9182288257928 462.9798520074548 0  386.7370398729688 459.2916193419558 0  392.4520147244077 455.444453565817 0  398.0588135356345 451.4412761437442 0  403.5531785622926 447.285127045646 0  408.9309374414144 442.9791624087773 0  414.1880064015299 438.5266521049243 0  419.3203932989752 433.9309773069245 0  424.324200661095 429.1956279150535 0  429.1956286596235 424.3241998957182 0  433.9309780058756 419.3203925397119 0  438.5266527445345 414.1880056671062 0  442.9791630130591 408.9309367076756 0  447.2851276060475 403.5531778422888 0  451.4412766621026 398.0588128303826 0  455.4444540361634 392.4520140460735 0  459.2916197786263 386.7370392045948 0  462.9798524073514 380.9182281752347 0  466.5063511234856 374.9999996927758 0  469.8684379657123 368.9868479560565 0  473.0635598144817 362.8833392617846 0  476.0892903190255 356.6941085676214 0  478.9433317963513 350.4238558609745 0  481.6235169154735 344.0773427117675 0  484.12781039012 337.6593885555221 0  486.4543105028062 331.1748670749914 0  488.601250531677 324.6287025528375 0  490.5670001317469 318.0258660188321 0  492.3500665291326 311.3713716102628 0  493.949095695951 304.6702726271575 0  495.3628733416623 297.9276578347343 0  496.5903258712341 291.1486474470129 0  497.6305211749058 284.3383893426084 0  498.4826693388848 277.502055163614 0  499.1461232580606 270.6448362909296 0  499.6203791109319 263.7719400417897 0  499.9050767571306 256.8885855596534 0  499.9050767559877 243.1114143988867 0  499.6203791069493 236.2280598860241 0  499.1461232485393 229.3551635941651 0  498.4826693235677 222.4979446979962 0  497.6305211491849 215.6616104719064 0  496.5903258357701 208.8513523404629 0  495.3628732906988 202.0723419043604 0  493.9490956264813 195.3297270628552 0  492.3500664487791 188.6286280724281 0  490.5670000344809 181.9741336371959 0  488.6012504175981 175.3712970824318 0  486.4543103623226 168.8251325157939 0  484.1278102222298 162.3406109960628 0  481.6235167152198 155.9226567951971 0  478.9433315621651 149.5761436051346 0  476.0892900516498 143.3058908657982 0  473.063559513628 137.1166601437124 0  469.8684376406648 131.0131514433083 0  466.5063507675389 124.9999996907064 0  462.9798520124137 119.0817711822745 0  459.2916193464549 113.2629601339176 0  455.4444535642773 107.5479852733717 0  451.4412761528674 101.9411864767781 0  447.2851270583545 96.44682145403524 0  442.9791624165781 91.06906256805769 0  438.5266521117469 85.81199360630404 0  433.9309773156125 80.67960671046254 0  429.1956279150353 75.67579933888632 0  424.3241998888952 70.80437133373906 0  419.3203925223282 66.06902197812161 0  414.1880056411937 61.47334723289828 0  408.9309366751728 57.0208369601728 0  403.5531778009394 52.71487236176898 0  398.058812796452 48.55872331295853 0  392.4520140187753 44.55554594490843 0  386.7370391799677 40.70838020528396 0  380.9182281475119 37.02014757560744 0  374.9999996718656 33.49364886444181 0  368.9868479340393 30.13156202237255 0  362.8833392380029 26.93644017348339 0  356.6941085456942 23.91070967062674 0  350.4238558420009 21.0566681953261 0  344.0773426899492 18.37648307566465 0  337.6593885328982 15.87218960140942 0  331.1748670549786 13.54568949032341 0  324.6287025315056 11.39874946165088 0  318.0258660010876 9.432999863235466 0  311.3713716017894 7.649933468721599 0  304.6702726190621 6.050904302234756 0  297.9276578269805 4.637126656823085 0  291.148647441857 3.409674127905504 0  284.3383893425031 2.369478825079682 0  277.502055159398 1.517330660648639 0  270.6448362875833 0.853876741662134 0  263.7719400401456 0.3796208889774277 0  256.8885855592052 0.09492324285704967 0  243.1114143979462 0.09492324403817065 0  236.2280598850882 0.3796208931023841 0  229.3551635938215 0.8538767514891958 0  222.4979446968584 1.517330676558146 0  215.6616104703111 2.369478851036291 0  208.8513523382973 3.409674164591252 0  202.0723419066374 4.637126708856528 0  195.3297270659513 6.050904372824903 0  188.628628074828 7.649933550613184 0  181.9741336377093 9.432999965373938 0  175.3712970793675 11.39874958336037 0  168.8251325057572 13.54568964112298 0  162.340610986655 15.87218978129263 0  155.9226567874317 18.37648328793418 0  149.576143602509 21.05666843898663 0  143.3058908718157 23.91070994551046 0  137.1166601505524 26.93644048291054 0  131.0131514451933 30.13156235831508 0  124.9999996848412 33.49364923584736 0  119.0817711715717 37.0201479941652 0  113.2629601211624 40.70838066187849 0  107.5479852622251 44.55554644345162 0  101.9411864693332 48.55872385260452 0  96.44682143286516 52.71487295812284 0  91.06906254351222 57.02083760363669 0  85.81199358272519 61.4733479087879 0  80.67960667988106 66.06902271253972 0  75.67579930062769 70.80437212218331 0  70.80437129287643 75.67580015310926 0  66.06902193673014 80.67960752263491 0  61.47334718684866 85.81199441168215 0  57.02083692524275 91.0690633672404 0  52.71487232786438 96.44682224262129 0  48.55872328070024 101.941187247437 0  44.55554591578033 107.5479860232332 0  40.7083801742321 113.2629608675606 0  37.02014754791168 119.0817718975441 0  33.49364883372994 125.000000381329 0  30.13156199866361 131.0131521097709 0  26.9364401549829 137.1166607985551 0  23.91070965524918 143.3058914868915 0  21.05666818346614 149.576144185037 0  18.37648306853811 155.9226573275967 0  15.8721895918909 162.3406114925245 0  13.54568948170046 168.8251329701392 0  11.39874945301878 175.3712974960928 0  9.432999857087736 181.9741340206533 0  7.649933466342702 188.6286284076045 0  6.050904301250966 195.3297273853278 0  4.637126656808988 202.0723421730917 0  3.409674127767772 208.8513525589684 0  2.369478824521138 215.6616106615248 0  1.517330660909465 222.4979448382452 0  0.8538767414496533 229.355163714981 0  0.3796208887135322 236.2280599646376 0  0.09492324266324204 243.1114144478261 0  0.0949232442452228 256.8885856095658 0  0.3796208935834784 263.7719401236316 0  0.8538767530323526 270.6448364248016 0  1.517330679476544 277.5020553295092 0  2.369478854618649 284.3383895555228 0  3.409674170191892 291.1486476952655 0  4.6371267162381 297.9276581311522 0  6.050904381420935 304.6702729724059 0  7.649933562385399 311.3713719716595 0  9.43299997979841 318.0258664133013 0  11.3987495994252 324.6287029719946 0  13.54568965885832 331.174867545904 0  15.87218979367188 337.6593890464085 0  18.37648329843151 344.0773432384132 0  21.05666844777872 350.423856417535 0  23.91070995156048 356.6941091410045 0  26.93644048988043 362.8833398632205 0  30.13156235982007 368.9868485575877 0  33.49364924138357 375.0000003247478 0  37.0201480006036 380.9182288389023 0  40.70838066758398 386.7370398875706 0  44.55554644477201 392.4520147396792 0  48.55872386086904 398.0588135419111 0  52.71487295981296 403.5531785693063 0  57.02083760525949 408.9309374584583 0  61.47334790862246 414.1880064170849 0  66.06902271205095 419.320393319588 0  70.80437211216579 424.3242006890749 0  75.67580013809859 429.195628692521 0  80.6796075127923 433.930978054209 0  85.81199439754931 438.5266528008431 0  91.06906334717917 442.9791630582355 0  96.44682221438322 447.2851276501571 0  101.9411872243843 451.441276702356 0  107.5479859945825 455.4444540643537 0  113.2629608446994 459.2916198108319 0  119.0817718768376 462.9798524393601 0  125.0000003647644 466.5063511567065 0  131.0131521012763 469.8684379967393 0  137.1166607840049 473.0635598376539 0  143.3058914748804 476.0892903390826 0  149.5761441732679 478.9433318113714 0  155.9226573130112 481.6235169255377 0  162.3406114779862 484.1278104026658 0  168.8251329570439 486.4543105138039 0  175.3712974805475 488.601250542119 0  181.9741340135204 490.5670001408953 0  188.6286284005059 492.3500665318597 0  195.3297273788229 493.9490956972913 0  202.0723421640089 495.3628733414168 0  208.8513525529672 496.5903258712308 0  215.6616106544547 497.6305211744985 0  222.4979448327038 498.4826693384772 0  229.3551637102845 499.1461232581612 0  236.2280599621369 499.6203791111485 0  243.1114144470173 499.9050767573145 0  155.2373389820306 474.8197567317462 0  25.36256300907667 153.9152755065208 0  432.3709625126712 412.6214396304305 0  6.013151705810699 246.637913163471 0  246.6379131630491 493.986848294322 0  338.6995838441862 22.68244767887072 0  477.3175523131281 338.6995838660569 0  493.9868482700757 246.6379131399102 0  246.6201155078769 6.218451882810491 0  417.6179310263282 72.7156044707053 0  102.2232990934413 445.0100869616822 0  63.66330858966404 92.20354579482142 0  391.3105220491464 50.73522820883105 0  72.79295043967942 418.0702734974704 0  448.290574428537 108.25674339002 0  402.4604651193511 440.7462829841712 0  97.55317348421397 59.11376320116034 0  136.7376477664901 33.58246472647134 0  363.3288394375288 465.6947312928271 0  44.0678766556007 381.0860953771871 0  469.6905266180034 142.3890690100806 0  22.68244791668644 338.6995843487432 0  338.699584349159 477.317552078365 0  173.389488083762 18.6681884918202 0  483.4809734778481 179.7121987795732 0  13.50237455842738 306.4709525540879 0  305.9825168523021 487.24416992
[...]
<PointData  Vectors="f_12"> 
<DataArray  type="Float64"  Name="f_12"  NumberOfComponents="3" format="ascii">0.0000000000000000e+00 4.0022356194226183e-01 7.9834038019981086e-03  0.0000000000000000e+00 2.1453182712783109e-01 8.0468062529916572e-03  0.0000000000000000e+00 8.9479040521717013e-01 2.5787441719425576e-02  0.0000000000000000e+00 5.4739489159087398e-02 2.2999293611311023e-02  0.0000000000000000e+00 8.9559037345194670e-01 2.5931231938572823e-02  0.0000000000000000e+00 8.9603649728066448e-01 2.6013402677888636e-02  0.0000000000000000e+00 8.9631163933359426e-01 2.6063573906663105e-02  0.0000000000000000e+00 8.9629061831914969e-01 2.6060869550570021e-02  0.0000000000000000e+00 8.9603473564150671e-01 2.6014300360631567e-02  0.0000000000000000e+00 8.9553307515773029e-01 2.5921864259815963e-02  0.0000000000000000e+00 8.9478963985408388e-01 2.5786492645381749e-02  0.0000000000000000e+00 8.9382403114226228e-01 2.5613715222945706e-02  0.0000000000000000e+00 8.9262257711432569e-01 2.5402900021987689e-02  0.0000000000000000e+00 8.9116207377349543e-01 2.5152770705673996e-02  0.0000000000000000e+00 8.8933757847677430e-01 2.4849782931418998e-02  0.0000000000000000e+00 8.8748680546270109e-01 2.4548462905339321e-02  0.0000000000000000e+00 8.8507889553514452e-01 2.4174811964133770e-02  0.0000000000000000e+00 8.8261006041575163e-01 2.3807633074151912e-02  0.0000000000000000e+00 8.7984491937044329e-01 2.3413911718914868e-02  0.0000000000000000e+00 8.7683437579960888e-01 2.3002182746911022e-02  0.0000000000000000e+00 8.7361801430004993e-01 2.2584683275039139e-02  0.0000000000000000e+00 8.7005589609471801e-01 2.2152247578807148e-02  0.0000000000000000e+00 8.6621994774249211e-01 2.1711467914474057e-02  0.0000000000000000e+00 8.6219186952690696e-01 2.1272190119735523e-02  0.0000000000000000e+00 8.5779368959688951e-01 2.0818616044431953e-02  0.0000000000000000e+00 8.5290108617614024e-01 2.0343068717133709e-02  0.0000000000000000e+00 8.4745639636746040e-01 1.9842131863084617e-02  0.0000000000000000e+00 8.4172451872895160e-01 1.9344640283742828e-02  0.0000000000000000e+00 8.3556342309904297e-01 1.8843161707250995e-02  0.0000000000000000e+00 8.2882522334897069e-01 1.8330245685276771e-02  0.0000000000000000e+00 8.2187072548253004e-01 1.7838486638942504e-02  0.0000000000000000e+00 8.1450425474302002e-01 1.7357162439866437e-02  0.0000000000000000e+00 8.0672284648686177e-01 1.6884721285114423e-02  0.0000000000000000e+00 7.9850126133518984e-01 1.6418452841428954e-02  0.0000000000000000e+00 7.8946942218268201e-01 1.5940828145878102e-02  0.0000000000000000e+00 7.7982017476217957e-01 1.5462406166651866e-02  0.0000000000000000e+00 7.6967191194207385e-01 1.4989696917678782e-02  0.0000000000000000e+00 7.5887828385902523e-01 1.4524667233621443e-02  0.0000000000000000e+00 7.4756856068795363e-01 1.4077947216450807e-02  0.0000000000000000e+00 7.3599554845069148e-01 1.3656640250921163e-02  0.0000000000000000e+00 7.2402732456793895e-01 1.3252957818925052e-02  0.0000000000000000e+00 7.1119970401494670e-01 1.2848870073462866e-02  0.0000000000000000e+00 6.9748520623610677e-01 1.2442413030945310e-02  0.0000000000000000e+00 6.8331154997947852e-01 1.2052421700911167e-02  0.0000000000000000e+00 6.6869960317641508e-01 1.1681630095887303e-02  0.0000000000000000e+00 6.5378008689294720e-01 1.1331673023562422e-02  0.0000000000000000e+00 6.3855133542499443e-01 1.1002621746764448e-02  0.0000000000000000e+00 6.2291276266508910e-01 1.0690101392885778e-02  0.0000000000000000e+00 6.0639471988225147e-01 1.0378252849181631e-02  0.0000000000000000e+00 5.8953213062758769e-01 1.0079522845550337e-02  0.0000000000000000e+00 5.7256533670298548e-01 9.8033804912824127e-03  0.0000000000000000e+00 5.5559180735761127e-01 9.5490934213436733e-03  0.0000000000000000e+00 5.3855376382944720e-01 9.3155967625309262e-03  0.0000000000000000e+00 5.2110755581929369e-01 9.0925697597139307e-03  0.0000000000000000e+00 5.0341087239451365e-01 8.8799816661395466e-03  0.0000000000000000e+00 4.8577415992460482e-01 8.6849774051395712e-03  0.0000000000000000e+00 4.6825527859320881e-01 8.5083105090845140e-03  0.0000000000000000e+00 4.5101450469424753e-01 8.3524480739600483e-03  0.0000000000000000e+00 4.3391915034019141e-01 8.2063970705124317e-03  0.0000000000000000e+00 4.1729697982437219e-01 8.0874979912518245e-03  0.0000000000000000e+00 3.8352743354600477e-01 7.8755756791526899e-03  0.0000000000000000e+00 3.6744848545492897e-01 7.7966612019121076e-03  0.0000000000000000e+00 3.5207673572882181e-01 7.7423097574553946e-03  0.0000000000000000e+00 3.3677709095465852e-01 7.6942683539724648e-03  0.0000000000000000e+00 3.2182355306988891e-01 7.6655600751084829e-03  0.0000000000000000e+00 3.0718124788328321e-01 7.6457453959520244e-03  0.0000000000000000e+00 2.9323849726680079e-01 7.6483452768878026e-03  0.0000000000000000e+00 2.7993250441654244e-01 7.6685357064644908e-03  0.0000000000000000e+00 2.6709535580345495e-01 7.7049487880721428e-03  0.0000000000000000e+00 2.5462050776017375e-01 7.7568542376588263e-03  0.0000000000000000e+00 2.4249951985860657e-01 7.8219799560064491e-03  0.0000000000000000e+00 2.3102748359841915e-01 7.9058551168450682e-03  0.0000000000000000e+00 2.2016133312867406e-01 8.0074581835635206e-03  0.0000000000000000e+00 2.0987835614554431e-01 8.1272810917926309e-03  0.0000000000000000e+00 1.9999520420030092e-01 8.2637188072871171e-03  0.0000000000000000e+00 1.9047141977488782e-01 8.4180581487857970e-03  0.0000000000000000e+00 1.8136746880949514e-01 8.5889986089915920e-03  0.0000000000000000e+00 1.7281656418378469e-01 8.7784822641688645e-03  0.0000000000000000e+00 1.6483096078161191e-01 8.9862532174668740e-03  0.0000000000000000e+00 1.5730565319076387e-01 9.2120929592599838e-03  0.0000000000000000e+00 1.5008291071284147e-01 9.4570931020199773e-03  0.0000000000000000e+00 1.4320879549821325e-01 9.7221282920232008e-03  0.0000000000000000e+00 1.3664682842370071e-01 1.0007406092353987e-02  0.0000000000000000e+00 1.3053533808587497e-01 1.0308934232397373e-02  0.0000000000000000e+00 1.2486389153793463e-01 1.0626966244404432e-02  0.0000000000000000e+00 1.1958509618578278e-01 1.0961282928366923e-02  0.0000000000000000e+00 1.1460459806918205e-01 1.1313780416212992e-02  0.0000000000000000e+00 1.0985071522296559e-01 1.1687715797225740e-02  0.0000000000000000e+00 1.0531280342552855e-01 1.2080535360491878e-02  0.0000000000000000e+00 1.0103040167319055e-01 1.2493347811945088e-02  0.0000000000000000e+00 9.7056982848436252e-02 1.2918890456385000e-02  0.0000000000000000e+00 9.3403532398441416e-02 1.3353713436791464e-02  0.0000000000000000e+00 9.0022888534363230e-02 1.3799226973525420e-02  0.0000000000000000e+00 8.6893079494462747e-02 1.4251183853896683e-02  0.0000000000000000e+00 8.3976074469732043e-02 1.4710671431000140e-02  0.0000000000000000e+00 8.1157501103899202e-02 1.5190410866436263e-02  0.0000000000000000e+00 7.8481566345890222e-02 1.5684638719087655e-02  0.0000000000000000e+00 7.6023118927054961e-02 1.6178896383877303e-02  0.0000000000000000e+00 7.3700757480854293e-02 1.6682503668309347e-02  0.0000000000000000e+00 7.1540109208305558e-02 1.7188923070439389e-02  0.0000000000000000e+00 6.9636300727606987e-02 1.7671227957347789e-02  0.0000000000000000e+00 6.7890818885113946e-02 1.8149250303282054e-02  0.0000000000000000e+00 6.6299874358318092e-02 1.8610394931665053e-02  0.0000000000000000e+00 6.4830895408675898e-02 1.9062324987691379e-02  0.0000000000000000e+00 6.3478802570847176e-02 1.9500702682517707e-02  0.0000000000000000e+00 6.2225714898453473e-02 1.9928109927360004e-02  0.0000000000000000e+00 6.1074630225179553e-02 2.0339326406222991e-02  0.0000000000000000e+00 6.0026792573003723e-02 2.0730759794059306e-02  0.0000000000000000e+00 5.9060397315465536e-02 2.1106437664908641e-02  0.0000000000000000e+00 5.8176783530689946e-02 2.1461638566607700e-02  0.0000000000000000e+00 5.7398500631335905e-02 2.1786226467434909e-02  0.0000000000000000e+00 5.6727787887221354e-02 2.2076895239605338e-02  0.0000000000000000e+00 5.6164053260580174e-02 2.2330825654641055e-02  0.0000000000000000e+00 5.5670003751584256e-02 2.2558274880756582e-02  0.0000000000000000e+00 5.5275877114677276e-02 2.2743310277602118e-02  0.0000000000000000e+00 5.4959924970818523e-02 2.2893147077409488e-02  0.0000000000000000e+00 5.4642950854430522e-02 2.3049645491372155e-02  0.0000000000000000e+00 5.4425128216451124e-02 2.3147289957172759e-02  0.0000000000000000e+00 5.4528884945485426e-02 2.3102917300930070e-02  0.0000000000000000e+00 5.4614924405189343e-02 2.3060400123468071e-02  0.0000000000000000e+00 5.4765483937328656e-02 2.2986569886728751e-02  0.0000000000000000e+00 5.5009188598504101e-02 2.2870836181266698e-02  0.0000000000000000e+00 5.5342957990558335e-02 2.2713359696322655e-02  0.0000000000000000e+00 5.5734464218353971e-02 2.2531005969890498e-02  0.0000000000000000e+00 5.6210990904418764e-02 2.2313485020838408e-02  0.0000000000000000e+00 5.6666449680108762e-02 2.2105735419039093e-02  0.0000000000000000e+00 5.7347977128091303e-02 2.1811606491364752e-02  0.0000000000000000e+00 5.8062407896678873e-02 2.1511735884719066e-02  0.0000000000000000e+00 5.8845441424013212e-02 2.1194435161066120e-02  0.0000000000000000e+00 5.9659377006575059e-02 2.0870365399241728e-02  0.0000000000000000e+00 6.0562777032028829e-02 2.0525496861041600e-02  0.0000000000000000e+00 6.1574938446128116e-02 2.0157080583033574e-02  0.0000000000000000e+00 6.2625514793100981e-02 1.9788375551018422e-02  0.0000000000000000e+00 6.3736262581339145e-02 1.9412834075665811e-02  0.0000000000000000e+00 6.4912562225688919e-02 1.9031983925554913e-02  0.0000000000000000e+00 6.6167915013664313e-02 1.8644817893545714e-02  0.0000000000000000e+00 6.7526072429714701e-02 1.8248123608583605e-02  0.0000000000000000e+00 6.8987664960096257e-02 1.7843136658098700e-02  0.0000000000000000e+00 7.0537364929990382e-02 1.7436026838043593e-02  0.0000000000000000e+00 7.2196300182625267e-02 1.7025891713036184e-02  0.0000000000000000e+00 7.3979607232261199e-02 1.6612091502038101e-02  0.0000000000000000e+00 7.5882431460146227e-02 1.6198695506906269e-02  0.0000000000000000e+00 7.7899820557857380e-02 1.5788488101454976e-02  0.0000000000000000e+00 8.0012970450543175e-02 1.5386542031805657e-02  0.0000000000000000e+00 8.2211805816071307e-02 1.4994763990885345e-02  0.0000000000000000e+00 8.4484427004798870e-02 1.4615339762079609e-02  0.0000000000000000e+00 8.6832807900170977e-02 1.4247940337855626e-02  0.0000000000000000e+00 8.9260614083075854e-02 1.3892050626304086e-02  0.0000000000000000e+00 9.1806860092896223e-02 1.3543808392977728e-02  0.0000000000000000e+00 9.4508195115654683e-02 1.3202210956101636e-02  0.0000000000000000e+00 9.7414293937626295e-02 1.2862337883570996e-02  0.0000000000000000e+00 1.0050955931565549e-01 1.2529169215469855e-02  0.0000000000000000e+00 1.0378614724259237e-01 1.2204797417289692e-02  0.0000000000000000e+00 1.0720993843068988e-01 1.1891890234428848e-02  0.0000000000000000e+00 1.1075360667340449e-01 1.1592693108018833e-02  0.0000000000000000e+00 1.1438884433796331e-01 1.1309401137198196e-02  0.0000000000000000e+00 1.1820759388821069e-01 1.1034571824278853e-02  0.0000000000000000e+00 1.2216206727865192e-01 1.0772295717403504e-02  0.0000000000000000e+00 1.2626078823968279e-01 1.0523441989559051e-02  0.0000000000000000e+00 1.3067276571247882e-01 1.0278337549432918e-02  0.0000000000000000e+00 1.3542905504052172e-01 1.0041178173119614e-02  0.0000000000000000e+00 1.4048760645874347e-01 9.8130606485440919e-03  0.0000000000000000e+00 1.4566410167551458e-01 9.6000276759626267e-03  0.0000000000000000e+00 1.5120802003048048e-01 9.3942420165789835e-03  0.0000000000000000e+00 1.5683921689002761e-01 9.2035336819823489e-03  0.0000000000000000e+00 1.6270897469720372e-01 9.0208842477534149e-03  0.0000000000000000e+00 1.6884428034447208e-01 8.8538209667529677e-03  0.0000000000000000e+00 1.7545639343750047e-01 8.6914296597645820e-03  0.0000000000000000e+00 1.8257465367539225e-01 8.5403506792057996e-03  0.0000000000000000e+00 1.9010496320060449e-01 8.4003020985842312e-03  0.0000000000000000e+00 1.9794982671540437e-01 8.2712540024044868e-03  0.0000000000000000e+00 2.0607182694853368e-01 8.1530483743361085e-03  0.0000000000000000e+00 2.2344267530026884e-01 7.9510778953439110e-03  0.0000000000000000e+00 2.3292388998784580e-01 7.8670205452330381e-03  0.0000000000000000e+00 2.4304309215354766e-01 7.7973480710869323e-03  0.0000000000000000e+00 2.5371565741681268e-01 7.7386412813781058e-03  0.0000000000000000e+00 2.6481276558780686e-01 7.6919603441885946e-03  0.0000000000000000e+00 2.7629472695860963e-01 7.6561911827954564e-03  0.0000000000000000e+00 2.8826452452002932e-01 7.6333811748816784e-03  0.0000000000000000e+00 3.0092040883814408e-01 7.6252152460170725e-03  0.0000000000000000e+00 3.1436059701841834e-01 7.6338239428870355e-03  0.0000000000000000e+00 3.2847746292316271e-01 7.6578819946345814e-03  0.0000000000000000e+00 3.4305004749017393e-01 7.6960493344305969e-03  0.0000000000000000e+00 3.5797879208449640e-01 7.7444986552257788e-03  0.0000000000000000e+00 3.7340356682601739e-01 7.8094447198209221e-03  0.0000000000000000e+00 3.8960163722520252e-01 7.8949329252140724e-03  0.0000000000000000e+00 4.0646077225368671e-01 7.9999080338911746e-03  0.0000000000000000e+00 4.2385057279659466e-01 8.1235935876723172e-03  0.0000000000000000e+00 4.4152051436986967e-01 8.2617872689989373e-03  0.0000000000000000e+00 4.5937003478711036e-01 8.4132225994582380e-03  0.0000000000000000e+00 4.7778694031604368e-01 8.5926950038031878e-03  0.0000000000000000e+00 4.9666245545031540e-01 8.7941513145964878e-03  0.0000000000000000e+00 5.1586302282341112e-01 9.0203092372796514e-03  0.0000000000000000e+00 5.3498335334380476e-01 9.2620696857053514e-03  0.0000000000000000e+00 5.5399386940417650e-01 9.5207597079425277e-03  0.0000000000000000e+00 5.7313248902336711e-01 9.8078607055014158e-03  0.0000000000000000e+00 5.9238403543578300e-01 1.0126017157852371e-02  0.0000000000000000e+00 6.1152713123791635e-01 1.0471068841330962e-02  0.0000000000000000e+00 6.3027548928050514e-01 1.0834217791485181e-02  0.0000000000000000e+00 6.4835472648044312e-01 1.1212883874364074e-02  0.0000000000000000e+00 6.6614191815689550e-01 1.1623074290711374e-02  0.0000000000000000e+00 6.8355502699227300e-01 1.2063753272796110e-02  0.0000000000000000e+00 7.0047642041532587e-01 1.2533976115819998e-02  0.0000000000000000e+00 7.1664439976997119e-01 1.3022775690257128e-02  0.0000000000000000e+00 7.3192051633835020e-01 1.3522986269372121e-02  0.0000000000000000e+00 7.4647051085499860e-01 1.4046289260644058e-02  0.0000000000000000e+00 7.6046445576000476e-01 1.4603137223754895e-02  0.0000000000000000e+00 7.7366310492371093e-01 1.5181967185308134e-02  0.0000000000000000e+00 7.8601297535467118e-01 1.5775872732114487e-02  0.0000000000000000e+00 7.9758146104867833e-01 1.6378787847667643e-02  0.0000000000000000e+00 8.0814914718597097e-01 1.6979076409123717e-02  0.0000000000000000e+00 8.1790696287820941e-01 1.7590017434835854e-02  0.0000000000000000e+00 8.2706748269891461e-01 1.8219756240344560e-02  0.0000000000000000e+00 8.3556772717400130e-01 1.8860160923793390e-02  0.0000000000000000e+00 8.4344393076428692e-01 1.9508384704436679e-02  0.0000000000000000e+00 8.5046112400837826e-01 2.0129429896019298e-02  0.0000000000000000e+00 8.5683502492429597e-01 2.0738805921361649e-02  0.0000000000000000e+00 8.6249156898125068e-01 2.1320721824337238e-02  0.0000000000000000e+00 8.6753595934407968e-01 2.1872860634851547e-02  0.0000000000000000e+00 8.7209519621238840e-01 2.2405345270699057e-02  0.0000000000000000e+00 8.7615290223926245e-01 2.2919952451081943e-02  0.0000000000000000e+00 8.7980147294358702e-01 2.3416043902640626e-02  0.0000000000000000e+00 8.8313345717897362e-01 2.3892649100214245e-02  0.0000000000000000e+00 8.8601108875275836e-01 2.4327227110941731e-02  0.0000000000000000e+00 8.8846244409958253e-01 2.4716212424361179e-02  0.0000000000000000e+00 8.9055076346506168e-01 2.5058327999322946e-02  0.0000000000000000e+00 8.9228444478517455e-01 2.5349578295354187e-02  0.0000000000000000e+00 8.9364724172154064e-01 2.5585851549675496e-02  0.0000000000000000e+00 8.3850029149170879e-01 1.9099379403779777e-02  0.0000000000000000e+00 1.2404741123525742e-01 1.0660105866378647e-02  0.0000000000000000e+00 7.9206472417007245e-01 1.6077125238796737e-02  0.0000000000000000e+00 2.1093769743996998e-01 8.0938173337990575e-03  0.0000000000000000e+00 8.9325147016533601e-01 2.5524257872450957e-02  0.0000000000000000e+00 6.6009482136164976e-02 1.8711992399435561e-02  0.0000000000000000e+00 6.2909265307230022e-01 1.0813408453469521e-02  0.0000000000000000e+00 3.9105699524388210e-01 7.9219355362144805e-03  0.0000000000000000e+00 5.5162921541236122e-02 2.2823049464828653e-02  0.0000000000000000e+00 1.0349127271688817e-01 1.2255818843585883e-02  0.0000000000000000e+00 7.3777777605174566e-01 1.3729589664446432e-02  0.0000000000000000e+00 8.8542780405869964e-02 1.4003737448821951e-02  0.0000000000000000e+00 8.5485095510312720e-02 1.4475336534623613e-02  0.0000000000000000e+00 6.3910739163076480e-01 1.1016324534139569e-02  0.0000000000000000e+00 1.4006167703408579e-01 9.8570614565337243e-03  0.0000000000000000e+00 8.3764533622380122e-01 1.9013872526679475e-02  0.0000000000000000e+00 7.3463127995813685e-02 1.6741437493687502e-02  0.0000000000000000e+00 6.3609291253784603e-02 1.9470546666186219e-02  0.0000000000000000e+00 8.7052622477704988e-01 2.2214275246624917e-02  0.0000000000000000e+00 5.0718192648114380e-01 8.9169664298901410e-03  0.0000000000000000e+00 1.8570525039969760e-01 8.5053567383007699e-03  0.0000000000000000e+00 3.8156363954628925e-01 7.8519649852842321e-03  0.0000000000000000e+00 8.8287456149077037e-01 2.3853258019747716e-02  0.0000000000000000e+00 5.8282272501444750e-02 2.1442472633975241e-02  0.0000000000000000e+00 2.4701300198892615e-01 7.7964997636972982e-03  0.0000000000000000e+00 3.0824666305487169e-01 7.6309415892421512e-03  0.0000000000000000e+00 8.9227433685520874e-01 2.5352437469360674e-02  0.0000000000000000e+00 8.7314451874996313e-01 2.2543450619039101e-02  0.0000000000000000e+00 1.5462352030636481e-01 9.2809179486501650e-03  0.0000000000000000e+00 5.9096302824722322e-02 2.1112239446101164e-02  0.0000000000000000e+00 5.2845418496403995e-01 9.1860817782308847e-03  0.0000000000000000e+00 7.3072487170692335e-01 1.3478115461521750e-02  0.0000000000000000e+00 5.5621206870688777e-02 2.2603668735988427e-02  0.0000000000000000e+00 2.9876409854181940e-01 7.6455209335784874e-03  0.0000000000000000e+00 2.5983613331451494e-01 7.7139257224706909e-03  0.0000000000000000e+00 8.9522807406753058e-01 2.5875612140805700e-02  0.0000000000000000e+00 7.5318100728068826e-02 1.6338262768730287e-02  0.0000000000000000e+00 1.0600891732128351e-01 1.2005478348959273e-02  0.0000000000000000e+00 8.8630360985869172e-01 2.4381394278003385e-02  0.0000000000000000e+00 8.0148460361085250e-01 1.6596775796438389e-02  0.0000000000000000e+00 1.8050697020914055e-01 8.5866003447427168e-03  0.0000000000000000e+00 5.6439765331340583e-02 2.2232154304211937e-02  0.0000000000000000e+00 4.6038482725781082e-01 8.4364865383988602e-03  0.0000000000000000e+00 8.5361428840996523e-01 2.0418137297516580e-02  0.0000000000000000e+00 5.7932904917793859e-01 9.9121875620604202e-03  0.0000000000000000e+00 5.4977029034040815e-02 2.2907288444093676e-02  0.0000000000000000e+00 6.2097911304811626e-02 1.9988755032971640e-02  0.0000000000000000e+00 3.4349262237401068e-01 7.7145550136281001e-03  0.0000000000000000e+00 1.1720782447598152e-01 1.1128640349244599e-02  0.0000000000000000e+00 8.5868702406623865e-01 2.0931327764475326e-02  0.0000000000000000e+00 7.6221257306120216e-01 1.4667905767175207e-02  0.0000000000000000e+00 5.8305926928144403e-01 9.9690981091833334e-03  0.0000000000000000e+00 6.8731980127390527e-02 1.7926373602702609e-02  0.0000000000000000e+00 4.5149331733833648e-01 8.3456011284035389e-03  0.0000000000000000e+00 1.3856237887519493e-01 9.9024561582551612e-03  0.0000000000000000e+00 6.8875189791616231e-01 1.2200738840089794e-02  0.0000000000