<?xml version="1.0"?>
<VTKFile type="UnstructuredGrid"  version="0.1"  >
<UnstructuredGrid>
<Piece  NumberOfPoints="4940" NumberOfCells="9650">
<Points>
<DataArray  type="Float64"  NumberOfComponents="3"  format="ascii">500 250 0  0 250 0  250 500 0  250 0 0  256.8885856082646 499.9050767557906 0  263.7719401218049 499.6203791065173 0  270.6448364229772 499.1461232471188 0  277.5020553257866 498.4826693209355 0  284.3383895508592 497.6305211460281 0  291.1486476865662 496.5903258312597 0  297.9276581259182 495.3628732847843 0  304.6702729675493 493.9490956196674 0  311.3713719748657 492.3500664368026 0  318.0258664141369 490.5670000199653 0  324.6287029687753 488.6012504015818 0  331.1748675330201 486.4543103455647 0  337.6593890460416 484.1278102064655 0  344.0773432429536 481.6235166997244 0  350.4238564271474 478.9433315480048 0  356.694109139292 476.0892900492477 0  362.88333985546 473.0635595140469 0  368.9868485575419 469.8684376402048 0  375.0000003153078 466.5063507640667 0  380.9182288257928 462.9798520074548 0  386.7370398729688 459.2916193419558 0  392.4520147244077 455.444453565817 0  398.0588135356345 451.4412761437442 0  403.5531785622926 447.285127045646 0  408.9309374414144 442.9791624087773 0  414.1880064015299 438.5266521049243 0  419.3203932989752 433.9309773069245 0  424.324200661095 429.1956279150535 0  429.1956286596235 424.3241998957182 0  433.9309780058756 419.3203925397119 0  438.5266527445345 414.1880056671062 0  442.9791630130591 408.9309367076756 0  447.2851276060475 403.5531778422888 0  451.4412766621026 398.0588128303826 0  455.4444540361634 392.4520140460735 0  459.2916197786263 386.7370392045948 0  462.9798524073514 380.9182281752347 0  466.5063511234856 374.9999996927758 0  469.8684379657123 368.9868479560565 0  473.0635598144817 362.8833392617846 0  476.0892903190255 356.6941085676214 0  478.9433317963513 350.4238558609745 0  481.6235169154735 344.0773427117675 0  484.12781039012 337.6593885555221 0  486.4543105028062 331.1748670749914 0  488.601250531677 324.6287025528375 0  490.5670001317469 318.0258660188321 0  492.3500665291326 311.3713716102628 0  493.949095695951 304.6702726271575 0  495.3628733416623 297.9276578347343 0  496.5903258712341 291.1486474470129 0  497.6305211749058 284.3383893426084 0  498.4826693388848 277.502055163614 0  499.1461232580606 270.6448362909296 0  499.6203791109319 263.7719400417897 0  499.9050767571306 256.8885855596534 0  499.9050767559877 243.1114143988867 0  499.6203791069493 236.2280598860241 0  499.1461232485393 229.3551635941651 0  498.4826693235677 222.4979446979962 0  497.6305211491849 215.6616104719064 0  496.5903258357701 208.8513523404629 0  495.3628732906988 202.0723419043604 0  493.9490956264813 195.3297270628552 0  492.3500664487791 188.6286280724281 0  490.5670000344809 181.9741336371959 0  488.6012504175981 175.3712970824318 0  486.4543103623226 168.8251325157939 0  484.1278102222298 162.3406109960628 0  481.6235167152198 155.9226567951971 0  478.9433315621651 149.5761436051346 0  476.0892900516498 143.3058908657982 0  473.063559513628 137.1166601437124 0  469.8684376406648 131.0131514433083 0  466.5063507675389 124.9999996907064 0  462.9798520124137 119.0817711822745 0  459.2916193464549 113.2629601339176 0  455.4444535642773 107.5479852733717 0  451.4412761528674 101.9411864767781 0  447.2851270583545 96.44682145403524 0  442.9791624165781 91.06906256805769 0  438.5266521117469 85.81199360630404 0  433.9309773156125 80.67960671046254 0  429.1956279150353 75.67579933888632 0  424.3241998888952 70.80437133373906 0  419.3203925223282 66.06902197812161 0  414.1880056411937 61.47334723289828 0  408.9309366751728 57.0208369601728 0  403.5531778009394 52.71487236176898 0  398.058812796452 48.55872331295853 0  392.4520140187753 44.55554594490843 0  386.7370391799677 40.70838020528396 0  380.9182281475119 37.02014757560744 0  374.9999996718656 33.49364886444181 0  368.9868479340393 30.13156202237255 0  362.8833392380029 26.93644017348339 0  356.6941085456942 23.91070967062674 0  350.4238558420009 21.0566681953261 0  344.0773426899492 18.37648307566465 0  337.6593885328982 15.87218960140942 0  331.1748670549786 13.54568949032341 0  324.6287025315056 11.39874946165088 0  318.0258660010876 9.432999863235466 0  311.3713716017894 7.649933468721599 0  304.6702726190621 6.050904302234756 0  297.9276578269805 4.637126656823085 0  291.148647441857 3.409674127905504 0  284.3383893425031 2.369478825079682 0  277.502055159398 1.517330660648639 0  270.6448362875833 0.853876741662134 0  263.7719400401456 0.3796208889774277 0  256.8885855592052 0.09492324285704967 0  243.1114143979462 0.09492324403817065 0  236.2280598850882 0.3796208931023841 0  229.3551635938215 0.8538767514891958 0  222.4979446968584 1.517330676558146 0  215.6616104703111 2.369478851036291 0  208.8513523382973 3.409674164591252 0  202.0723419066374 4.637126708856528 0  195.3297270659513 6.050904372824903 0  188.628628074828 7.649933550613184 0  181.9741336377093 9.432999965373938 0  175.3712970793675 11.39874958336037 0  168.8251325057572 13.54568964112298 0  162.340610986655 15.87218978129263 0  155.9226567874317 18.37648328793418 0  149.576143602509 21.05666843898663 0  143.3058908718157 23.91070994551046 0  137.1166601505524 26.93644048291054 0  131.0131514451933 30.13156235831508 0  124.9999996848412 33.49364923584736 0  119.0817711715717 37.0201479941652 0  113.2629601211624 40.70838066187849 0  107.5479852622251 44.55554644345162 0  101.9411864693332 48.55872385260452 0  96.44682143286516 52.71487295812284 0  91.06906254351222 57.02083760363669 0  85.81199358272519 61.4733479087879 0  80.67960667988106 66.06902271253972 0  75.67579930062769 70.80437212218331 0  70.80437129287643 75.67580015310926 0  66.06902193673014 80.67960752263491 0  61.47334718684866 85.81199441168215 0  57.02083692524275 91.0690633672404 0  52.71487232786438 96.44682224262129 0  48.55872328070024 101.941187247437 0  44.55554591578033 107.5479860232332 0  40.7083801742321 113.2629608675606 0  37.02014754791168 119.0817718975441 0  33.49364883372994 125.000000381329 0  30.13156199866361 131.0131521097709 0  26.9364401549829 137.1166607985551 0  23.91070965524918 143.3058914868915 0  21.05666818346614 149.576144185037 0  18.37648306853811 155.9226573275967 0  15.8721895918909 162.3406114925245 0  13.54568948170046 168.8251329701392 0  11.39874945301878 175.3712974960928 0  9.432999857087736 181.9741340206533 0  7.649933466342702 188.6286284076045 0  6.050904301250966 195.3297273853278 0  4.637126656808988 202.0723421730917 0  3.409674127767772 208.8513525589684 0  2.369478824521138 215.6616106615248 0  1.517330660909465 222.4979448382452 0  0.8538767414496533 229.355163714981 0  0.3796208887135322 236.2280599646376 0  0.09492324266324204 243.1114144478261 0  0.0949232442452228 256.8885856095658 0  0.3796208935834784 263.7719401236316 0  0.8538767530323526 270.6448364248016 0  1.517330679476544 277.5020553295092 0  2.369478854618649 284.3383895555228 0  3.409674170191892 291.1486476952655 0  4.6371267162381 297.9276581311522 0  6.050904381420935 304.6702729724059 0  7.649933562385399 311.3713719716595 0  9.43299997979841 318.0258664133013 0  11.3987495994252 324.6287029719946 0  13.54568965885832 331.174867545904 0  15.87218979367188 337.6593890464085 0  18.37648329843151 344.0773432384132 0  21.05666844777872 350.423856417535 0  23.91070995156048 356.6941091410045 0  26.93644048988043 362.8833398632205 0  30.13156235982007 368.9868485575877 0  33.49364924138357 375.0000003247478 0  37.0201480006036 380.9182288389023 0  40.70838066758398 386.7370398875706 0  44.55554644477201 392.4520147396792 0  48.55872386086904 398.0588135419111 0  52.71487295981296 403.5531785693063 0  57.02083760525949 408.9309374584583 0  61.47334790862246 414.1880064170849 0  66.06902271205095 419.320393319588 0  70.80437211216579 424.3242006890749 0  75.67580013809859 429.195628692521 0  80.6796075127923 433.930978054209 0  85.81199439754931 438.5266528008431 0  91.06906334717917 442.9791630582355 0  96.44682221438322 447.2851276501571 0  101.9411872243843 451.441276702356 0  107.5479859945825 455.4444540643537 0  113.2629608446994 459.2916198108319 0  119.0817718768376 462.9798524393601 0  125.0000003647644 466.5063511567065 0  131.0131521012763 469.8684379967393 0  137.1166607840049 473.0635598376539 0  143.3058914748804 476.0892903390826 0  149.5761441732679 478.9433318113714 0  155.9226573130112 481.6235169255377 0  162.3406114779862 484.1278104026658 0  168.8251329570439 486.4543105138039 0  175.3712974805475 488.601250542119 0  181.9741340135204 490.5670001408953 0  188.6286284005059 492.3500665318597 0  195.3297273788229 493.9490956972913 0  202.0723421640089 495.3628733414168 0  208.8513525529672 496.5903258712308 0  215.6616106544547 497.6305211744985 0  222.4979448327038 498.4826693384772 0  229.3551637102845 499.1461232581612 0  236.2280599621369 499.6203791111485 0  243.1114144470173 499.9050767573145 0  155.2373389820306 474.8197567317462 0  25.36256300907667 153.9152755065208 0  432.3709625126712 412.6214396304305 0  6.013151705810699 246.637913163471 0  246.6379131630491 493.986848294322 0  338.6995838441862 22.68244767887072 0  477.3175523131281 338.6995838660569 0  493.9868482700757 246.6379131399102 0  246.6201155078769 6.218451882810491 0  417.6179310263282 72.7156044707053 0  102.2232990934413 445.0100869616822 0  63.66330858966404 92.20354579482142 0  391.3105220491464 50.73522820883105 0  72.79295043967942 418.0702734974704 0  448.290574428537 108.25674339002 0  402.4604651193511 440.7462829841712 0  97.55317348421397 59.11376320116034 0  136.7376477664901 33.58246472647134 0  363.3288394375288 465.6947312928271 0  44.0678766556007 381.0860953771871 0  469.6905266180034 142.3890690100806 0  22.68244791668644 338.6995843487432 0  338.699584349159 477.317552078365 0  173.389488083762 18.6681884918202 0  483.4809734778481 179.7121987795732 0  13.50237455842738 306.4709525540879 0  305.9825168523021 487.24416992
[...]
<PointData  Vectors="f_12"> 
<DataArray  type="Float64"  Name="f_12"  NumberOfComponents="3" format="ascii">0.0000000000000000e+00 9.1361330722259659e-01 1.5960997174346400e-01  0.0000000000000000e+00 9.4579390605226465e-01 8.2533871616360902e-02  0.0000000000000000e+00 6.1276532433726005e-01 6.6064320998096659e-01  0.0000000000000000e+00 8.8503425361273624e-01 2.3896337827042442e-02  0.0000000000000000e+00 6.1082428842222314e-01 6.6334493361415103e-01  0.0000000000000000e+00 6.0962266609364368e-01 6.6501332666124968e-01  0.0000000000000000e+00 6.0896828928874558e-01 6.6592084782979277e-01  0.0000000000000000e+00 6.0898160699264359e-01 6.6590261074919443e-01  0.0000000000000000e+00 6.0959152829161078e-01 6.6505664525392616e-01  0.0000000000000000e+00 6.1080238460829039e-01 6.6337527013888653e-01  0.0000000000000000e+00 6.1261097251382035e-01 6.6085855255117110e-01  0.0000000000000000e+00 6.1499521111309108e-01 6.5753167933273549e-01  0.0000000000000000e+00 6.1795733689868837e-01 6.5338388839989936e-01  0.0000000000000000e+00 6.2150313107180422e-01 6.4839713270917487e-01  0.0000000000000000e+00 6.2568582757915836e-01 6.4248484685814811e-01  0.0000000000000000e+00 6.3013753379964454e-01 6.3615835128226250e-01  0.0000000000000000e+00 6.3526803747723837e-01 6.2882066500090616e-01  0.0000000000000000e+00 6.4054006866995661e-01 6.2123077752705214e-01  0.0000000000000000e+00 6.4607204770485838e-01 6.1321314950671302e-01  0.0000000000000000e+00 6.5173041656699138e-01 6.0495486764861428e-01  0.0000000000000000e+00 6.5742033720517823e-01 5.9659268374728902e-01  0.0000000000000000e+00 6.6322450615343154e-01 5.8800236720255306e-01  0.0000000000000000e+00 6.6910557762262046e-01 5.7923883150060496e-01  0.0000000000000000e+00 6.7507385762165828e-01 5.7028222064083189e-01  0.0000000000000000e+00 6.8131869471594542e-01 5.6084404826073375e-01  0.0000000000000000e+00 6.8800287155106998e-01 5.5066654729379860e-01  0.0000000000000000e+00 6.9519135213236438e-01 5.3963540834694856e-01  0.0000000000000000e+00 7.0272252170437788e-01 5.2798344000252329e-01  0.0000000000000000e+00 7.1056441607492649e-01 5.1574798241793529e-01  0.0000000000000000e+00 7.1860536812347997e-01 5.0309228557644048e-01  0.0000000000000000e+00 7.2645674701435081e-01 4.9062952080087430e-01  0.0000000000000000e+00 7.3406529564475298e-01 4.7845027871211004e-01  0.0000000000000000e+00 7.4141057528450072e-01 4.6660059490667466e-01  0.0000000000000000e+00 7.4861190080553386e-01 4.5489330019221952e-01  0.0000000000000000e+00 7.5595099614552996e-01 4.4287131554992154e-01  0.0000000000000000e+00 7.6349017383995710e-01 4.3042909277215502e-01  0.0000000000000000e+00 7.7124445713481193e-01 4.1753203743509520e-01  0.0000000000000000e+00 7.7915392343558032e-01 4.0427226154218088e-01  0.0000000000000000e+00 7.8695936762399898e-01 3.9108258213590069e-01  0.0000000000000000e+00 7.9439061837182678e-01 3.7842749162177824e-01  0.0000000000000000e+00 8.0145862221056829e-01 3.6630085407463409e-01  0.0000000000000000e+00 8.0840058453425112e-01 3.5430511558932942e-01  0.0000000000000000e+00 8.1537542848403344e-01 3.4216730401680034e-01  0.0000000000000000e+00 8.2239665153076835e-01 3.2986222777659285e-01  0.0000000000000000e+00 8.2942340944628390e-01 3.1745790362586190e-01  0.0000000000000000e+00 8.3626089844146134e-01 3.0529971738226352e-01  0.0000000000000000e+00 8.4273975078770347e-01 2.9369397857477142e-01  0.0000000000000000e+00 8.4887343248822700e-01 2.8262761656300212e-01  0.0000000000000000e+00 8.5490062583856274e-01 2.7167578031865514e-01  0.0000000000000000e+00 8.6087483888381877e-01 2.6074550611052127e-01  0.0000000000000000e+00 8.6679647403268256e-01 2.4983257713568130e-01  0.0000000000000000e+00 8.7251714340038955e-01 2.3921036226414077e-01  0.0000000000000000e+00 8.7792194867968643e-01 2.2909441232361838e-01  0.0000000000000000e+00 8.8301957334085135e-01 2.1947407504538241e-01  0.0000000000000000e+00 8.8790759943359332e-01 2.1017239613885424e-01  0.0000000000000000e+00 8.9268896229953054e-01 2.0099619903071522e-01  0.0000000000000000e+00 8.9739284455380874e-01 1.9188819551788378e-01  0.0000000000000000e+00 9.0190376494200619e-01 1.8306756752741837e-01  0.0000000000000000e+00 9.0610099487809148e-01 1.7476889430751502e-01  0.0000000000000000e+00 9.0990723623805081e-01 1.6714954205408819e-01  0.0000000000000000e+00 9.1724245769069712e-01 1.5216278561491553e-01  0.0000000000000000e+00 9.2070803875494633e-01 1.4493068768324990e-01  0.0000000000000000e+00 9.2387989258833614e-01 1.3817976939676904e-01  0.0000000000000000e+00 9.2682076750419906e-01 1.3179045508516490e-01  0.0000000000000000e+00 9.2952838113212988e-01 1.2576014080846001e-01  0.0000000000000000e+00 9.3211243555756873e-01 1.1986435858850002e-01  0.0000000000000000e+00 9.3454766932412103e-01 1.1413833726952950e-01  0.0000000000000000e+00 9.3678102622982651e-01 1.0869525466854159e-01  0.0000000000000000e+00 9.3877710630461420e-01 1.0361120770521678e-01  0.0000000000000000e+00 9.4054453103130942e-01 9.8864379683605133e-02  0.0000000000000000e+00 9.4214727166478540e-01 9.4303351359944956e-02  0.0000000000000000e+00 9.4359823906754547e-01 8.9884905101164397e-02  0.0000000000000000e+00 9.4488769707586762e-01 8.5620022905578047e-02  0.0000000000000000e+00 9.4596489592178179e-01 8.1633876035547948e-02  0.0000000000000000e+00 9.4682483260390016e-01 7.7947033332214380e-02  0.0000000000000000e+00 9.4748866886801886e-01 7.4497249125663745e-02  0.0000000000000000e+00 9.4798936962398439e-01 7.1173764547111315e-02  0.0000000000000000e+00 9.4832540452143799e-01 6.7949672781860232e-02  0.0000000000000000e+00 9.4847927340824223e-01 6.4874802311662413e-02  0.0000000000000000e+00 9.4844018799215057e-01 6.2014502565630493e-02  0.0000000000000000e+00 9.4821214511093255e-01 5.9372429012191294e-02  0.0000000000000000e+00 9.4780251120500025e-01 5.6928382086836669e-02  0.0000000000000000e+00 9.4721996596380598e-01 5.4567614054047732e-02  0.0000000000000000e+00 9.4645964399396110e-01 5.2284168389877032e-02  0.0000000000000000e+00 9.4551485106474875e-01 5.0098031581308947e-02  0.0000000000000000e+00 9.4440031501091237e-01 4.8068109925034977e-02  0.0000000000000000e+00 9.4313900477120804e-01 4.6219868027496579e-02  0.0000000000000000e+00 9.4174182924885586e-01 4.4523085587691968e-02  0.0000000000000000e+00 9.4020014338515434e-01 4.2919338640302597e-02  0.0000000000000000e+00 9.3848365169537518e-01 4.1365907224507927e-02  0.0000000000000000e+00 9.3658604571714377e-01 3.9859561807655611e-02  0.0000000000000000e+00 9.3452939296074433e-01 3.8426906088527411e-02  0.0000000000000000e+00 9.3235294868963126e-01 3.7099303971722598e-02  0.0000000000000000e+00 9.3013471698224637e-01 3.5906396245879123e-02  0.0000000000000000e+00 9.2791024988728155e-01 3.4842046987540218e-02  0.0000000000000000e+00 9.2561189831066204e-01 3.3844387283412256e-02  0.0000000000000000e+00 9.2323335021103570e-01 3.2897719823695229e-02  0.0000000000000000e+00 9.2078918141988142e-01 3.2004342665937408e-02  0.0000000000000000e+00 9.1818929767165514e-01 3.1122537938047850e-02  0.0000000000000000e+00 9.1547664988034461e-01 3.0268317009597173e-02  0.0000000000000000e+00 9.1280870819160242e-01 2.9497645341384878e-02  0.0000000000000000e+00 9.1016238792745985e-01 2.8794038402286438e-02  0.0000000000000000e+00 9.0762870318403599e-01 2.8168471762061876e-02  0.0000000000000000e+00 9.0521662089750632e-01 2.7611231855820508e-02  0.0000000000000000e+00 9.0294472014886284e-01 2.7117109324668268e-02  0.0000000000000000e+00 9.0078943889373342e-01 2.6671345967094265e-02  0.0000000000000000e+00 8.9874983886918902e-01 2.6267548578180894e-02  0.0000000000000000e+00 8.9682029634902527e-01 2.5899649194333355e-02  0.0000000000000000e+00 8.9495859004976797e-01 2.5555687968075017e-02  0.0000000000000000e+00 8.9317176444407698e-01 2.5234485734862869e-02  0.0000000000000000e+00 8.9151430367245432e-01 2.4944896236170827e-02  0.0000000000000000e+00 8.9000295716321320e-01 2.4688951776500941e-02  0.0000000000000000e+00 8.8866397046441492e-01 2.4469353925585989e-02  0.0000000000000000e+00 8.8744700425613998e-01 2.4273335431400315e-02  0.0000000000000000e+00 8.8644214117398534e-01 2.4114215957474292e-02  0.0000000000000000e+00 8.8562175367487428e-01 2.3985540067914975e-02  0.0000000000000000e+00 8.8475507820895438e-01 2.3856948041316200e-02  0.0000000000000000e+00 8.8420986713079730e-01 2.3765519567153903e-02  0.0000000000000000e+00 8.8444787446494566e-01 2.3807941076810644e-02  0.0000000000000000e+00 8.8467153424633982e-01 2.3841971859334132e-02  0.0000000000000000e+00 8.8506620030693595e-01 2.3901604776626888e-02  0.0000000000000000e+00 8.8569270729161120e-01 2.3998829857852663e-02  0.0000000000000000e+00 8.8653634038397566e-01 2.4131940859175048e-02  0.0000000000000000e+00 8.8750665640670490e-01 2.4285666613767364e-02  0.0000000000000000e+00 8.8865020421507068e-01 2.4470689141500877e-02  0.0000000000000000e+00 8.8973150601260720e-01 2.4643446324921683e-02  0.0000000000000000e+00 8.9123842633264805e-01 2.4900206786722785e-02  0.0000000000000000e+00 8.9274871144430956e-01 2.5162739406340041e-02  0.0000000000000000e+00 8.9432899756577022e-01 2.5443438145445790e-02  0.0000000000000000e+00 8.9590593248556760e-01 2.5727810587240368e-02  0.0000000000000000e+00 8.9757352842887217e-01 2.6038646009335954e-02  0.0000000000000000e+00 8.9936338050270281e-01 2.6385741814181941e-02  0.0000000000000000e+00 9.0115917265466083e-01 2.6744106916335830e-02  0.0000000000000000e+00 9.0300777311483071e-01 2.7125322815650162e-02  0.0000000000000000e+00 9.0492283682644481e-01 2.7537425370937417e-02  0.0000000000000000e+00 9.0692623317226384e-01 2.7991234306540061e-02  0.0000000000000000e+00 9.0903766263352814e-01 2.8499156295790324e-02  0.0000000000000000e+00 9.1123615125999002e-01 2.9060730445159496e-02  0.0000000000000000e+00 9.1345999747756046e-01 2.9665644586158234e-02  0.0000000000000000e+00 9.1568751264272763e-01 3.0313692079713454e-02  0.0000000000000000e+00 9.1788849354235458e-01 3.0998691766019618e-02  0.0000000000000000e+00 9.2001776200832086e-01 3.1706449340904018e-02  0.0000000000000000e+00 9.2205345278375772e-01 3.2427754603994573e-02  0.0000000000000000e+00 9.2398421258286989e-01 3.3155915625048375e-02  0.0000000000000000e+00 9.2582763503585697e-01 3.3896388388633555e-02  0.0000000000000000e+00 9.2760761277104475e-01 3.4660977973286412e-02  0.0000000000000000e+00 9.2935373647872899e-01 3.5468614957806663e-02  0.0000000000000000e+00 9.3107988284594145e-01 3.6334858727367469e-02  0.0000000000000000e+00 9.3279662225662341e-01 3.7281507212065718e-02  0.0000000000000000e+00 9.3448319827458048e-01 3.8314180747055684e-02  0.0000000000000000e+00 9.3612234265608496e-01 3.9428230526185090e-02  0.0000000000000000e+00 9.3765878261318003e-01 4.0587315151695738e-02  0.0000000000000000e+00 9.3907191901114406e-01 4.1766960645615331e-02  0.0000000000000000e+00 9.4035768844345180e-01 4.2950250818891172e-02  0.0000000000000000e+00 9.4153109013002600e-01 4.4147189729234371e-02  0.0000000000000000e+00 9.4261285255944749e-01 4.5382653683127390e-02  0.0000000000000000e+00 9.4364071332456589e-01 4.6727520934704850e-02  0.0000000000000000e+00 9.4459946751179491e-01 4.8183942551747010e-02  0.0000000000000000e+00 9.4546666922776346e-01 4.9745884014043625e-02  0.0000000000000000e+00 9.4624649220723211e-01 5.1436713854887108e-02  0.0000000000000000e+00 9.4691491211397461e-01 5.3217442617911163e-02  0.0000000000000000e+00 9.4746423513505029e-01 5.5038227884473670e-02  0.0000000000000000e+00 9.4789768768142790e-01 5.6841162867412941e-02  0.0000000000000000e+00 9.4823342412292533e-01 5.8766808905747613e-02  0.0000000000000000e+00 9.4846224965989567e-01 6.0782151459952867e-02  0.0000000000000000e+00 9.4857959522291002e-01 6.2983095440325015e-02  0.0000000000000000e+00 9.4856108454938426e-01 6.5372289997997518e-02  0.0000000000000000e+00 9.4841308550577463e-01 6.7947989920996099e-02  0.0000000000000000e+00 9.4813651092701479e-01 7.0642436945738851e-02  0.0000000000000000e+00 9.4774566181621522e-01 7.3398489853459245e-02  0.0000000000000000e+00 9.4724377800149573e-01 7.6233492672450429e-02  0.0000000000000000e+00 9.4660587133060092e-01 7.9243615670248846e-02  0.0000000000000000e+00 9.4479543234681362e-01 8.6123883788030278e-02  0.0000000000000000e+00 9.4362580201555590e-01 8.9952126605708074e-02  0.0000000000000000e+00 9.4231558076187527e-01 9.3933182440880253e-02  0.0000000000000000e+00 9.4088350002294574e-01 9.8034876327287190e-02  0.0000000000000000e+00 9.3929340795590188e-01 1.0234717475863495e-01  0.0000000000000000e+00 9.3748174588316957e-01 1.0701758097589863e-01  0.0000000000000000e+00 9.3541557843106637e-01 1.1211200224830520e-01  0.0000000000000000e+00 9.3312052534888712e-01 1.1756710434206370e-01  0.0000000000000000e+00 9.3065209298776541e-01 1.2326029313150388e-01  0.0000000000000000e+00 9.2802174095699952e-01 1.2916990618582266e-01  0.0000000000000000e+00 9.2517502487698700e-01 1.3541115653734129e-01  0.0000000000000000e+00 9.2204290446350923e-01 1.4212698422058395e-01  0.0000000000000000e+00 9.1860192334310609e-01 1.4935698861712737e-01  0.0000000000000000e+00 9.1489840533823708e-01 1.5700705576104490e-01  0.0000000000000000e+00 9.1101785113655520e-01 1.6490745732207865e-01  0.0000000000000000e+00 9.0690498244631368e-01 1.7316569438398832e-01  0.0000000000000000e+00 9.0245710661208667e-01 1.8198039191304671e-01  0.0000000000000000e+00 8.9764892710534694e-01 1.9139361746346145e-01  0.0000000000000000e+00 8.9250320722899179e-01 2.0135576771396335e-01  0.0000000000000000e+00 8.8714560018568633e-01 2.1162695627654085e-01  0.0000000000000000e+00 8.8156048934695552e-01 2.2223335391883028e-01  0.0000000000000000e+00 8.7563944135912086e-01 2.3337349692023929e-01  0.0000000000000000e+00 8.6928035758357114e-01 2.4522786622754375e-01  0.0000000000000000e+00 8.6253476721924360e-01 2.5769168613953414e-01  0.0000000000000000e+00 8.5556474520875625e-01 2.7046129354152776e-01  0.0000000000000000e+00 8.4843897464124673e-01 2.8340910723094420e-01  0.0000000000000000e+00 8.4100482564520940e-01 2.9680603560367103e-01  0.0000000000000000e+00 8.3315454672024802e-01 3.1083080326629337e-01  0.0000000000000000e+00 8.2485951602689522e-01 3.2552166083563516e-01  0.0000000000000000e+00 8.1638555091900011e-01 3.4039948599967113e-01  0.0000000000000000e+00 8.0787742632316761e-01 3.5520965112757313e-01  0.0000000000000000e+00 7.9926194601979250e-01 3.7007666696206704e-01  0.0000000000000000e+00 7.9035579090905783e-01 3.8530879554244285e-01  0.0000000000000000e+00 7.8103347937126955e-01 4.0110430847262618e-01  0.0000000000000000e+00 7.7142480604812314e-01 4.1722983868056335e-01  0.0000000000000000e+00 7.6189502398773967e-01 4.3306864708066312e-01  0.0000000000000000e+00 7.5260121768441790e-01 4.4836924753795393e-01  0.0000000000000000e+00 7.4339506793545262e-01 4.6338228574354456e-01  0.0000000000000000e+00 7.3415706050033691e-01 4.7830314684187369e-01  0.0000000000000000e+00 7.2470389820935566e-01 4.9342077306117005e-01  0.0000000000000000e+00 7.1502959738728944e-01 5.0873471438135076e-01  0.0000000000000000e+00 7.0541144080155194e-01 5.2379970221494665e-01  0.0000000000000000e+00 6.9612654494045478e-01 5.3819498615851491e-01  0.0000000000000000e+00 6.8748815692536214e-01 5.5145260221661230e-01  0.0000000000000000e+00 6.7944042800937010e-01 5.6369032781240236e-01  0.0000000000000000e+00 6.7192645985878074e-01 5.7501350984956745e-01  0.0000000000000000e+00 6.6480783808685673e-01 5.8564904709538912e-01  0.0000000000000000e+00 6.5792511247120511e-01 5.9584711110456656e-01  0.0000000000000000e+00 6.5124646169275924e-01 6.0566386459967902e-01  0.0000000000000000e+00 6.4474669830027298e-01 6.1513853121308637e-01  0.0000000000000000e+00 6.3846278657920130e-01 6.2422715853402400e-01  0.0000000000000000e+00 6.3263264691636001e-01 6.3259471431744829e-01  0.0000000000000000e+00 6.2736130302208926e-01 6.4010799688453179e-01  0.0000000000000000e+00 6.2269251218835875e-01 6.4671846646844522e-01  0.0000000000000000e+00 6.1870164336741784e-01 6.5233900557752122e-01  0.0000000000000000e+00 6.1543837813243008e-01 6.5691169725383913e-01  0.0000000000000000e+00 7.0115356284455210e-01 5.3041913066854762e-01  0.0000000000000000e+00 9.4499263232534458e-01 4.8905039926360604e-02  0.0000000000000000e+00 7.5323726216421938e-01 4.4732986708527961e-01  0.0000000000000000e+00 9.4615070987895633e-01 8.1108743892373630e-02  0.0000000000000000e+00 6.1506836261081888e-01 6.5742966475597697e-01  0.0000000000000000e+00 9.0710720515717091e-01 2.8070644931052734e-02  0.0000000000000000e+00 8.4608321465798675e-01 2.8767079013408792e-01  0.0000000000000000e+00 9.1548386435753681e-01 1.5579077241929154e-01  0.0000000000000000e+00 8.8600514485911375e-01 2.4077952444171755e-02  0.0000000000000000e+00 9.3947219842563612e-01 4.2255912594054042e-02  0.0000000000000000e+00 7.8629300759331400e-01 3.9220961271765220e-01  0.0000000000000000e+00 9.3055505678740646e-01 3.6094293501802516e-02  0.0000000000000000e+00 9.2903748556475674e-01 3.5387168114908010e-02  0.0000000000000000e+00 8.3698270384330375e-01 3.0400598734132911e-01  0.0000000000000000e+00 9.4753992641902152e-01 5.5802013448195791e-02  0.0000000000000000e+00 7.0700067809688694e-01 5.2132429561274518e-01  0.0000000000000000e+00 9.1721564913587961e-01 3.0810364151646397e-02  0.0000000000000000e+00 9.0279153015374869e-01 2.7105026896336065e-02  0.0000000000000000e+00 6.6139797590091354e-01 5.9071462503478511e-01  0.0000000000000000e+00 8.8401228156735678e-01 2.1758641560291081e-01  0.0000000000000000e+00 9.4775999976268022e-01 7.2785834254160006e-02  0.0000000000000000e+00 9.1672292720459381e-01 1.5325238187444556e-01  0.0000000000000000e+00 6.3872398865756319e-01 6.2385116887182623e-01  0.0000000000000000e+00 8.9312406441121639e-01 2.5253590020493540e-02  0.0000000000000000e+00 9.4153153986127736e-01 9.6081022823478815e-02  0.0000000000000000e+00 9.3177629384160365e-01 1.2067746796546794e-01  0.0000000000000000e+00 6.1725966534176868e-01 6.5436199962604769e-01  0.0000000000000000e+00 6.5516974697153230e-01 5.9990879859518942e-01  0.0000000000000000e+00 9.4836834016344751e-01 5.9984863108759057e-02  0.0000000000000000e+00 8.9494506293956977e-01 2.5576443358853281e-02  0.0000000000000000e+00 8.8064329761694349e-01 2.2396721529440580e-01  0.0000000000000000e+00 7.9704627654494942e-01 3.7388133006335028e-01  0.0000000000000000e+00 8.8713714947865940e-01 2.4250631661461474e-02  0.0000000000000000e+00 9.3353125386045610e-01 1.1654554156268078e-01  0.0000000000000000e+00 9.4002138017253400e-01 1.0038766915521623e-01  0.0000000000000000e+00 6.1025233639716603e-01 6.6413930115147746e-01  0.0000000000000000e+00 9.1996120724466424e-01 3.1736204823857861e-02  0.0000000000000000e+00 9.3989902721069130e-01 4.2545574431319212e-02  0.0000000000000000e+00 6.3075513086204149e-01 6.3527724424793242e-01  0.0000000000000000e+00 7.3940343401560804e-01 4.6985092440185000e-01  0.0000000000000000e+00 9.4821621658315669e-01 6.9857997545842432e-02  0.0000000000000000e+00 8.8918504279823740e-01 2.4582934497103495e-02  0.0000000000000000e+00 8.9927136934359919e-01 1.8822299832057973e-01  0.0000000000000000e+00 6.8567190977179626e-01 5.5422560245185293e-01  0.0000000000000000e+00 8.6404550533168722e-01 2.5491154842828434e-01  0.0000000000000000e+00 8.8552372613387864e-01 2.3997665752977630e-02  0.0000000000000000e+00 9.0052443577626273e-01 2.6640305098097634e-02  0.0000000000000000e+00 9.2544395393737688e-01 1.3479845890723263e-01  0.0000000000000000e+00 9.4380111973041880e-01 4.7170047347706336e-02  0.0000000000000000e+00 6.7607889834498869e-01 5.6876678673588354e-01  0.0000000000000000e+00 7.7590105833152101e-01 4.0974091418105008e-01  0.0000000000000000e+00 8.5873506107894859e-01 2.6466587256319640e-01  0.0000000000000000e+00 9.1082434920990984e-01 2.8982468480213439e-02  0.0000000000000000e+00 8.9975217672061514e-01 1.8728870162072758e-01  0.0000000000000000e+00 9.4724947901963841e-01 5.4352415453972160e-02  0.0000000000000000e+00 8.1920395169952243e-01 3.3546750134062947e-01  0.0000000000