<?xml version="1.0"?>
<VTKFile type="UnstructuredGrid"  version="0.1"  >
<UnstructuredGrid>
<Piece  NumberOfPoints="4940" NumberOfCells="9650">
<Points>
<DataArray  type="Float64"  NumberOfComponents="3"  format="ascii">500 250 0  0 250 0  250 500 0  250 0 0  256.8885856082646 499.9050767557906 0  263.7719401218049 499.6203791065173 0  270.6448364229772 499.1461232471188 0  277.5020553257866 498.4826693209355 0  284.3383895508592 497.6305211460281 0  291.1486476865662 496.5903258312597 0  297.9276581259182 495.3628732847843 0  304.6702729675493 493.9490956196674 0  311.3713719748657 492.3500664368026 0  318.0258664141369 490.5670000199653 0  324.6287029687753 488.6012504015818 0  331.1748675330201 486.4543103455647 0  337.6593890460416 484.1278102064655 0  344.0773432429536 481.6235166997244 0  350.4238564271474 478.9433315480048 0  356.694109139292 476.0892900492477 0  362.88333985546 473.0635595140469 0  368.9868485575419 469.8684376402048 0  375.0000003153078 466.5063507640667 0  380.9182288257928 462.9798520074548 0  386.7370398729688 459.2916193419558 0  392.4520147244077 455.444453565817 0  398.0588135356345 451.4412761437442 0  403.5531785622926 447.285127045646 0  408.9309374414144 442.9791624087773 0  414.1880064015299 438.5266521049243 0  419.3203932989752 433.9309773069245 0  424.324200661095 429.1956279150535 0  429.1956286596235 424.3241998957182 0  433.9309780058756 419.3203925397119 0  438.5266527445345 414.1880056671062 0  442.9791630130591 408.9309367076756 0  447.2851276060475 403.5531778422888 0  451.4412766621026 398.0588128303826 0  455.4444540361634 392.4520140460735 0  459.2916197786263 386.7370392045948 0  462.9798524073514 380.9182281752347 0  466.5063511234856 374.9999996927758 0  469.8684379657123 368.9868479560565 0  473.0635598144817 362.8833392617846 0  476.0892903190255 356.6941085676214 0  478.9433317963513 350.4238558609745 0  481.6235169154735 344.0773427117675 0  484.12781039012 337.6593885555221 0  486.4543105028062 331.1748670749914 0  488.601250531677 324.6287025528375 0  490.5670001317469 318.0258660188321 0  492.3500665291326 311.3713716102628 0  493.949095695951 304.6702726271575 0  495.3628733416623 297.9276578347343 0  496.5903258712341 291.1486474470129 0  497.6305211749058 284.3383893426084 0  498.4826693388848 277.502055163614 0  499.1461232580606 270.6448362909296 0  499.6203791109319 263.7719400417897 0  499.9050767571306 256.8885855596534 0  499.9050767559877 243.1114143988867 0  499.6203791069493 236.2280598860241 0  499.1461232485393 229.3551635941651 0  498.4826693235677 222.4979446979962 0  497.6305211491849 215.6616104719064 0  496.5903258357701 208.8513523404629 0  495.3628732906988 202.0723419043604 0  493.9490956264813 195.3297270628552 0  492.3500664487791 188.6286280724281 0  490.5670000344809 181.9741336371959 0  488.6012504175981 175.3712970824318 0  486.4543103623226 168.8251325157939 0  484.1278102222298 162.3406109960628 0  481.6235167152198 155.9226567951971 0  478.9433315621651 149.5761436051346 0  476.0892900516498 143.3058908657982 0  473.063559513628 137.1166601437124 0  469.8684376406648 131.0131514433083 0  466.5063507675389 124.9999996907064 0  462.9798520124137 119.0817711822745 0  459.2916193464549 113.2629601339176 0  455.4444535642773 107.5479852733717 0  451.4412761528674 101.9411864767781 0  447.2851270583545 96.44682145403524 0  442.9791624165781 91.06906256805769 0  438.5266521117469 85.81199360630404 0  433.9309773156125 80.67960671046254 0  429.1956279150353 75.67579933888632 0  424.3241998888952 70.80437133373906 0  419.3203925223282 66.06902197812161 0  414.1880056411937 61.47334723289828 0  408.9309366751728 57.0208369601728 0  403.5531778009394 52.71487236176898 0  398.058812796452 48.55872331295853 0  392.4520140187753 44.55554594490843 0  386.7370391799677 40.70838020528396 0  380.9182281475119 37.02014757560744 0  374.9999996718656 33.49364886444181 0  368.9868479340393 30.13156202237255 0  362.8833392380029 26.93644017348339 0  356.6941085456942 23.91070967062674 0  350.4238558420009 21.0566681953261 0  344.0773426899492 18.37648307566465 0  337.6593885328982 15.87218960140942 0  331.1748670549786 13.54568949032341 0  324.6287025315056 11.39874946165088 0  318.0258660010876 9.432999863235466 0  311.3713716017894 7.649933468721599 0  304.6702726190621 6.050904302234756 0  297.9276578269805 4.637126656823085 0  291.148647441857 3.409674127905504 0  284.3383893425031 2.369478825079682 0  277.502055159398 1.517330660648639 0  270.6448362875833 0.853876741662134 0  263.7719400401456 0.3796208889774277 0  256.8885855592052 0.09492324285704967 0  243.1114143979462 0.09492324403817065 0  236.2280598850882 0.3796208931023841 0  229.3551635938215 0.8538767514891958 0  222.4979446968584 1.517330676558146 0  215.6616104703111 2.369478851036291 0  208.8513523382973 3.409674164591252 0  202.0723419066374 4.637126708856528 0  195.3297270659513 6.050904372824903 0  188.628628074828 7.649933550613184 0  181.9741336377093 9.432999965373938 0  175.3712970793675 11.39874958336037 0  168.8251325057572 13.54568964112298 0  162.340610986655 15.87218978129263 0  155.9226567874317 18.37648328793418 0  149.576143602509 21.05666843898663 0  143.3058908718157 23.91070994551046 0  137.1166601505524 26.93644048291054 0  131.0131514451933 30.13156235831508 0  124.9999996848412 33.49364923584736 0  119.0817711715717 37.0201479941652 0  113.2629601211624 40.70838066187849 0  107.5479852622251 44.55554644345162 0  101.9411864693332 48.55872385260452 0  96.44682143286516 52.71487295812284 0  91.06906254351222 57.02083760363669 0  85.81199358272519 61.4733479087879 0  80.67960667988106 66.06902271253972 0  75.67579930062769 70.80437212218331 0  70.80437129287643 75.67580015310926 0  66.06902193673014 80.67960752263491 0  61.47334718684866 85.81199441168215 0  57.02083692524275 91.0690633672404 0  52.71487232786438 96.44682224262129 0  48.55872328070024 101.941187247437 0  44.55554591578033 107.5479860232332 0  40.7083801742321 113.2629608675606 0  37.02014754791168 119.0817718975441 0  33.49364883372994 125.000000381329 0  30.13156199866361 131.0131521097709 0  26.9364401549829 137.1166607985551 0  23.91070965524918 143.3058914868915 0  21.05666818346614 149.576144185037 0  18.37648306853811 155.9226573275967 0  15.8721895918909 162.3406114925245 0  13.54568948170046 168.8251329701392 0  11.39874945301878 175.3712974960928 0  9.432999857087736 181.9741340206533 0  7.649933466342702 188.6286284076045 0  6.050904301250966 195.3297273853278 0  4.637126656808988 202.0723421730917 0  3.409674127767772 208.8513525589684 0  2.369478824521138 215.6616106615248 0  1.517330660909465 222.4979448382452 0  0.8538767414496533 229.355163714981 0  0.3796208887135322 236.2280599646376 0  0.09492324266324204 243.1114144478261 0  0.0949232442452228 256.8885856095658 0  0.3796208935834784 263.7719401236316 0  0.8538767530323526 270.6448364248016 0  1.517330679476544 277.5020553295092 0  2.369478854618649 284.3383895555228 0  3.409674170191892 291.1486476952655 0  4.6371267162381 297.9276581311522 0  6.050904381420935 304.6702729724059 0  7.649933562385399 311.3713719716595 0  9.43299997979841 318.0258664133013 0  11.3987495994252 324.6287029719946 0  13.54568965885832 331.174867545904 0  15.87218979367188 337.6593890464085 0  18.37648329843151 344.0773432384132 0  21.05666844777872 350.423856417535 0  23.91070995156048 356.6941091410045 0  26.93644048988043 362.8833398632205 0  30.13156235982007 368.9868485575877 0  33.49364924138357 375.0000003247478 0  37.0201480006036 380.9182288389023 0  40.70838066758398 386.7370398875706 0  44.55554644477201 392.4520147396792 0  48.55872386086904 398.0588135419111 0  52.71487295981296 403.5531785693063 0  57.02083760525949 408.9309374584583 0  61.47334790862246 414.1880064170849 0  66.06902271205095 419.320393319588 0  70.80437211216579 424.3242006890749 0  75.67580013809859 429.195628692521 0  80.6796075127923 433.930978054209 0  85.81199439754931 438.5266528008431 0  91.06906334717917 442.9791630582355 0  96.44682221438322 447.2851276501571 0  101.9411872243843 451.441276702356 0  107.5479859945825 455.4444540643537 0  113.2629608446994 459.2916198108319 0  119.0817718768376 462.9798524393601 0  125.0000003647644 466.5063511567065 0  131.0131521012763 469.8684379967393 0  137.1166607840049 473.0635598376539 0  143.3058914748804 476.0892903390826 0  149.5761441732679 478.9433318113714 0  155.9226573130112 481.6235169255377 0  162.3406114779862 484.1278104026658 0  168.8251329570439 486.4543105138039 0  175.3712974805475 488.601250542119 0  181.9741340135204 490.5670001408953 0  188.6286284005059 492.3500665318597 0  195.3297273788229 493.9490956972913 0  202.0723421640089 495.3628733414168 0  208.8513525529672 496.5903258712308 0  215.6616106544547 497.6305211744985 0  222.4979448327038 498.4826693384772 0  229.3551637102845 499.1461232581612 0  236.2280599621369 499.6203791111485 0  243.1114144470173 499.9050767573145 0  155.2373389820306 474.8197567317462 0  25.36256300907667 153.9152755065208 0  432.3709625126712 412.6214396304305 0  6.013151705810699 246.637913163471 0  246.6379131630491 493.986848294322 0  338.6995838441862 22.68244767887072 0  477.3175523131281 338.6995838660569 0  493.9868482700757 246.6379131399102 0  246.6201155078769 6.218451882810491 0  417.6179310263282 72.7156044707053 0  102.2232990934413 445.0100869616822 0  63.66330858966404 92.20354579482142 0  391.3105220491464 50.73522820883105 0  72.79295043967942 418.0702734974704 0  448.290574428537 108.25674339002 0  402.4604651193511 440.7462829841712 0  97.55317348421397 59.11376320116034 0  136.7376477664901 33.58246472647134 0  363.3288394375288 465.6947312928271 0  44.0678766556007 381.0860953771871 0  469.6905266180034 142.3890690100806 0  22.68244791668644 338.6995843487432 0  338.699584349159 477.317552078365 0  173.389488083762 18.6681884918202 0  483.4809734778481 179.7121987795732 0  13.50237455842738 306.4709525540879 0  305.9825168523021 487.24416992
[...]
<PointData  Vectors="f_12"> 
<DataArray  type="Float64"  Name="f_12"  NumberOfComponents="3" format="ascii">0.0000000000000000e+00 1.2960237766660643e-01 9.9102148667464995e-01  0.0000000000000000e+00 4.4260862057065387e-01 8.6836699622374502e-01  0.0000000000000000e+00 1.9898275183934701e-02 1.0421010630288928e-01  0.0000000000000000e+00 8.2789747728214325e-01 3.2020927795384974e-01  0.0000000000000000e+00 1.9986024535833681e-02 1.0326625375486156e-01  0.0000000000000000e+00 2.0040144695925660e-02 1.0269309437985009e-01  0.0000000000000000e+00 2.0069839212942506e-02 1.0237975163585782e-01  0.0000000000000000e+00 2.0069188623598501e-02 1.0238839743844674e-01  0.0000000000000000e+00 2.0041281526932048e-02 1.0268080679177412e-01  0.0000000000000000e+00 1.9986188318498303e-02 1.0326306714753686e-01  0.0000000000000000e+00 1.9904227665827133e-02 1.0414034028171712e-01  0.0000000000000000e+00 1.9797171448661138e-02 1.0531133252665216e-01  0.0000000000000000e+00 1.9665160614860126e-02 1.0679118899847051e-01  0.0000000000000000e+00 1.9508599585076065e-02 1.0860393573932151e-01  0.0000000000000000e+00 1.9325266944933372e-02 1.1080689390324597e-01  0.0000000000000000e+00 1.9133736630222761e-02 1.1321182158276097e-01  0.0000000000000000e+00 1.8914383094222005e-02 1.1610850937470317e-01  0.0000000000000000e+00 1.8693620539815107e-02 1.1920174763595022e-01  0.0000000000000000e+00 1.8465733339514814e-02 1.2259563501878118e-01  0.0000000000000000e+00 1.8236706490932654e-02 1.2623290296485959e-01  0.0000000000000000e+00 1.8011617455626371e-02 1.3007581361204901e-01  0.0000000000000000e+00 1.7787811001721998e-02 1.3421064554301881e-01  0.0000000000000000e+00 1.7567361225786868e-02 1.3861755879740636e-01  0.0000000000000000e+00 1.7350891422086019e-02 1.4332147941845402e-01  0.0000000000000000e+00 1.7131823636232234e-02 1.4850442786893939e-01  0.0000000000000000e+00 1.6907310654670431e-02 1.5436768301417067e-01  0.0000000000000000e+00 1.6675210183581635e-02 1.6103625919102343e-01  0.0000000000000000e+00 1.6446013903590975e-02 1.6844923381907553e-01  0.0000000000000000e+00 1.6223532383323032e-02 1.7669016514984906e-01  0.0000000000000000e+00 1.6011087819440870e-02 1.8576308413319670e-01  0.0000000000000000e+00 1.5826290935264026e-02 1.9532380958198217e-01  0.0000000000000000e+00 1.5667344919875408e-02 2.0537438024670773e-01  0.0000000000000000e+00 1.5537973265596004e-02 2.1591057424995358e-01  0.0000000000000000e+00 1.5434687323647372e-02 2.2712844656277101e-01  0.0000000000000000e+00 1.5355741174521258e-02 2.3955667733520378e-01  0.0000000000000000e+00 1.5308374778001770e-02 2.5339684891082181e-01  0.0000000000000000e+00 1.5297847324132125e-02 2.6881947733736405e-01  0.0000000000000000e+00 1.5333920924149435e-02 2.8593842314617363e-01  0.0000000000000000e+00 1.5429648604474549e-02 3.0443195753849028e-01  0.0000000000000000e+00 1.5589488507251160e-02 3.2377932988269725e-01  0.0000000000000000e+00 1.5819929478879322e-02 3.4407348621890427e-01  0.0000000000000000e+00 1.6137060781072739e-02 3.6606436699416345e-01  0.0000000000000000e+00 1.6561390076619571e-02 3.9036290363953968e-01  0.0000000000000000e+00 1.7126188407058290e-02 4.1715635150067976e-01  0.0000000000000000e+00 1.7860911457162662e-02 4.4648551536192183e-01  0.0000000000000000e+00 1.8794538011604672e-02 4.7770826141659517e-01  0.0000000000000000e+00 1.9949333255151552e-02 5.1022727466995355e-01  0.0000000000000000e+00 2.1378050518797775e-02 5.4405081386220211e-01  0.0000000000000000e+00 2.3205642760680330e-02 5.8039422971464794e-01  0.0000000000000000e+00 2.5547272440341481e-02 6.1919836471109135e-01  0.0000000000000000e+00 2.8571265941548633e-02 6.6016979367848305e-01  0.0000000000000000e+00 3.2385650857719599e-02 7.0183110538804616e-01  0.0000000000000000e+00 3.7103680399954417e-02 7.4292064517470269e-01  0.0000000000000000e+00 4.2915089786622805e-02 7.8296948145842138e-01  0.0000000000000000e+00 5.0093818874860620e-02 8.2185985049294086e-01  0.0000000000000000e+00 5.8957760866514108e-02 8.5933947452980231e-01  0.0000000000000000e+00 6.9783567285136530e-02 8.9449505234288385e-01  0.0000000000000000e+00 8.2429412646152042e-02 9.2583734900372272e-01  0.0000000000000000e+00 9.6633974317487881e-02 9.5217006885466804e-01  0.0000000000000000e+00 1.1179877716795801e-01 9.7391724256893708e-01  0.0000000000000000e+00 1.4892885312155582e-01 1.0040920021632154e+00  0.0000000000000000e+00 1.6981893897365113e-01 1.0125251594252109e+00  0.0000000000000000e+00 1.9135311573048838e-01 1.0162859158915130e+00  0.0000000000000000e+00 2.1362569078166932e-01 1.0158144614075946e+00  0.0000000000000000e+00 2.3645939936254778e-01 1.0118178168007610e+00  0.0000000000000000e+00 2.6030676761288746e-01 1.0041757807201102e+00  0.0000000000000000e+00 2.8475244616762668e-01 9.9330890878674272e-01  0.0000000000000000e+00 3.0914109211015955e-01 9.7971860077945760e-01  0.0000000000000000e+00 3.3303081498357961e-01 9.6409012529178262e-01  0.0000000000000000e+00 3.5648165153857136e-01 9.4673749373405858e-01  0.0000000000000000e+00 3.7996467967464292e-01 9.2751418684928333e-01  0.0000000000000000e+00 4.0340577802755467e-01 9.0666678982136073e-01  0.0000000000000000e+00 4.2654076825086740e-01 8.8456820370789258e-01  0.0000000000000000e+00 4.4867797117987207e-01 8.6207512686905585e-01  0.0000000000000000e+00 4.6973883545276079e-01 8.3953788346294200e-01  0.0000000000000000e+00 4.9005726971546337e-01 8.1679935525116321e-01  0.0000000000000000e+00 5.1006004553905471e-01 7.9349449152124396e-01  0.0000000000000000e+00 5.2971435576578518e-01 7.6974385504691945e-01  0.0000000000000000e+00 5.4861656116404500e-01 7.4613098485048024e-01  0.0000000000000000e+00 5.6639796671238163e-01 7.2325161426713958e-01  0.0000000000000000e+00 5.8311982120428307e-01 7.0116033341029016e-01  0.0000000000000000e+00 5.9893569003763381e-01 6.7976306397607000e-01  0.0000000000000000e+00 6.1442547771153522e-01 6.5835505754420831e-01  0.0000000000000000e+00 6.2948346848271164e-01 6.3711451049188539e-01  0.0000000000000000e+00 6.4391137860511027e-01 6.1637334082597650e-01  0.0000000000000000e+00 6.5735697824338823e-01 5.9670620663074048e-01  0.0000000000000000e+00 6.6973470752504982e-01 5.7831597255410461e-01  0.0000000000000000e+00 6.8128394631208766e-01 5.6091463685463216e-01  0.0000000000000000e+00 6.9234046931898152e-01 5.4403764435665947e-01  0.0000000000000000e+00 7.0313297839854005e-01 5.2736342969694694e-01  0.0000000000000000e+00 7.1359339032222247e-01 5.1101107425399916e-01  0.0000000000000000e+00 7.2351035750432247e-01 4.9533624242565139e-01  0.0000000000000000e+00 7.3270051023426452e-01 4.8066017024462870e-01  0.0000000000000000e+00 7.4100555981576877e-01 4.6727483496756267e-01  0.0000000000000000e+00 7.4850390329462757e-01 4.5508880268064655e-01  0.0000000000000000e+00 7.5561522861877328e-01 4.4344332552801086e-01  0.0000000000000000e+00 7.6243083302193626e-01 4.3220513258155291e-01  0.0000000000000000e+00 7.6889772964786840e-01 4.2146899776448876e-01  0.0000000000000000e+00 7.7525476926085435e-01 4.1084567009080897e-01  0.0000000000000000e+00 7.8138277160159386e-01 4.0054428581922069e-01  0.0000000000000000e+00 7.8688973083437264e-01 3.9122898262865596e-01  0.0000000000000000e+00 7.9192570626241021e-01 3.8266585358613142e-01  0.0000000000000000e+00 7.9640990269142276e-01 3.7500253112926513e-01  0.0000000000000000e+00 8.0043433914336026e-01 3.6809632307571744e-01  0.0000000000000000e+00 8.0403407316589992e-01 3.6189417353410258e-01  0.0000000000000000e+00 8.0731068850690135e-01 3.5622937502766966e-01  0.0000000000000000e+00 8.1030048431510360e-01 3.5104409574967543e-01  0.0000000000000000e+00 8.1303781571239575e-01 3.4628313460730370e-01  0.0000000000000000e+00 8.1560029001546175e-01 3.4181460584258982e-01  0.0000000000000000e+00 8.1798724733099715e-01 3.3764185847720296e-01  0.0000000000000000e+00 8.2013716397375658e-01 3.3387541075742144e-01  0.0000000000000000e+00 8.2203584843285649e-01 3.3054162348653959e-01  0.0000000000000000e+00 8.2366846752201084e-01 3.2767003069481188e-01  0.0000000000000000e+00 8.2512137803717656e-01 3.2511068323875397e-01  0.0000000000000000e+00 8.2629431647265239e-01 3.2304152304303801e-01  0.0000000000000000e+00 8.2723855300450833e-01 3.2137433324783349e-01  0.0000000000000000e+00 8.2819459195380052e-01 3.1968316338661423e-01  0.0000000000000000e+00 8.2884694871165432e-01 3.1853134051436194e-01  0.0000000000000000e+00 8.2854744605126318e-01 3.1905947311726157e-01  0.0000000000000000e+00 8.2829502270226596e-01 3.1950593587999077e-01  0.0000000000000000e+00 8.2785218956220363e-01 3.2028908277844720e-01  0.0000000000000000e+00 8.2713787701597463e-01 3.2155161313647468e-01  0.0000000000000000e+00 8.2615747515605975e-01 3.2328244699588649e-01  0.0000000000000000e+00 8.2501944442128805e-01 3.2528976791596720e-01  0.0000000000000000e+00 8.2364747955220485e-01 3.2770620172557302e-01  0.0000000000000000e+00 8.2235208171958429e-01 3.2998655107229918e-01  0.0000000000000000e+00 8.2044700797029280e-01 3.3333149551842056e-01  0.0000000000000000e+00 8.1849211474304506e-01 3.3675738205210443e-01  0.0000000000000000e+00 8.1639815171818297e-01 3.4042069725511659e-01  0.0000000000000000e+00 8.1426007885795904e-01 3.4415318637183900e-01  0.0000000000000000e+00 8.1192969761054246e-01 3.4821201578254690e-01  0.0000000000000000e+00 8.0934605579821917e-01 3.5270102572854389e-01  0.0000000000000000e+00 8.0668159493336011e-01 3.5731854653940059e-01  0.0000000000000000e+00 8.0385513696522359e-01 3.6220344145567190e-01  0.0000000000000000e+00 8.0082090542252060e-01 3.6743173709688676e-01  0.0000000000000000e+00 7.9751078295305411e-01 3.7311743641795247e-01  0.0000000000000000e+00 7.9383676480363941e-01 3.7940483667255198e-01  0.0000000000000000e+00 7.8979453588464787e-01 3.8629569180731399e-01  0.0000000000000000e+00 7.8544499023965320e-01 3.9367860737591381e-01  0.0000000000000000e+00 7.8078298663713941e-01 4.0155579042468359e-01  0.0000000000000000e+00 7.7584032479055143e-01 4.0986663380097571e-01  0.0000000000000000e+00 7.7071101347024251e-01 4.1844763406190072e-01  0.0000000000000000e+00 7.6546348287988986e-01 4.2718060013890130e-01  0.0000000000000000e+00 7.6016021149513280e-01 4.3595971744718442e-01  0.0000000000000000e+00 7.5478229117339368e-01 4.4481438374470100e-01  0.0000000000000000e+00 7.4927047250223000e-01 4.5383948160807319e-01  0.0000000000000000e+00 7.4350933260511909e-01 4.6321833608625584e-01  0.0000000000000000e+00 7.3739377429149755e-01 4.7311279918761928e-01  0.0000000000000000e+00 7.3077112419724588e-01 4.8375617129220472e-01  0.0000000000000000e+00 7.2358845703484287e-01 4.9521421110144265e-01  0.0000000000000000e+00 7.1584178989185177e-01 5.0747414264085222e-01  0.0000000000000000e+00 7.0775687514547037e-01 5.2015951729602450e-01  0.0000000000000000e+00 6.9950223044352899e-01 5.3299675782674560e-01  0.0000000000000000e+00 6.9121300387617424e-01 5.4577067978733185e-01  0.0000000000000000e+00 6.8287356692692103e-01 5.5850232682838807e-01  0.0000000000000000e+00 6.7436887230678744e-01 5.7136441559217244e-01  0.0000000000000000e+00 6.6524603898048329e-01 5.8501606355613633e-01  0.0000000000000000e+00 6.5549458157284746e-01 5.9945028837278114e-01  0.0000000000000000e+00 6.4511969618705167e-01 6.1462154124370671e-01  0.0000000000000000e+00 6.3390595497609326e-01 6.3079660496781675e-01  0.0000000000000000e+00 6.2210667746695625e-01 6.4757307994240332e-01  0.0000000000000000e+00 6.1005134438757935e-01 6.6444483596875181e-01  0.0000000000000000e+00 5.9816827514682369e-01 6.8081535227478518e-01  0.0000000000000000e+00 5.8567496118876849e-01 6.9773435019835628e-01  0.0000000000000000e+00 5.7282597315103456e-01 7.1482192892997332e-01  0.0000000000000000e+00 5.5902264470086938e-01 7.3281235150788093e-01  0.0000000000000000e+00 5.4426545450949082e-01 7.5163286577641897e-01  0.0000000000000000e+00 5.2843656335263978e-01 7.7130691962768894e-01  0.0000000000000000e+00 5.1198663142223699e-01 7.9120161621038709e-01  0.0000000000000000e+00 4.9533580242095265e-01 8.1073389024704867e-01  0.0000000000000000e+00 4.7851163578101791e-01 8.2983476757730867e-01  0.0000000000000000e+00 4.6110590969408322e-01 8.4890312660043443e-01  0.0000000000000000e+00 4.2286029295884214e-01 8.8818015714899756e-01  0.0000000000000000e+00 4.0219082465170003e-01 9.0778725756830447e-01  0.0000000000000000e+00 3.8113496692705912e-01 9.2652226078325595e-01  0.0000000000000000e+00 3.6001954442969164e-01 9.4394740971322566e-01  0.0000000000000000e+00 3.3867990791117464e-01 9.6008756287181718e-01  0.0000000000000000e+00 3.1661469181217161e-01 9.7506842501333135e-01  0.0000000000000000e+00 2.9362138650127301e-01 9.8866460912077836e-01  0.0000000000000000e+00 2.7005317842082044e-01 1.0001985389341890e+00  0.0000000000000000e+00 2.4660709788027652e-01 1.0089591674018898e+00  0.0000000000000000e+00 2.2372625368033680e-01 1.0144885822611560e+00  0.0000000000000000e+00 2.0135339218672027e-01 1.0165835994855310e+00  0.0000000000000000e+00 1.7928984101829534e-01 1.0147223254503130e+00  0.0000000000000000e+00 1.5765991355772169e-01 1.0083215171416042e+00  0.0000000000000000e+00 1.3698030124494542e-01 9.9683339096107937e-01  0.0000000000000000e+00 1.1797473987255262e-01 9.8029805419391225e-01  0.0000000000000000e+00 1.0075255770356745e-01 9.5866147134594648e-01  0.0000000000000000e+00 8.5167808383618232e-02 9.3162932125617071e-01  0.0000000000000000e+00 7.1360546586878751e-02 8.9897431958999474e-01  0.0000000000000000e+00 5.9412179795746541e-02 8.6118607767238065e-01  0.0000000000000000e+00 4.9603934075589051e-02 8.1965490328948820e-01  0.0000000000000000e+00 4.1735609671731809e-02 7.7574107155061800e-01  0.0000000000000000e+00 3.5484140111475500e-02 7.3001592357342027e-01  0.0000000000000000e+00 3.0523607041443926e-02 6.8281587309983327e-01  0.0000000000000000e+00 2.6655961013019425e-02 6.3532651162214160e-01  0.0000000000000000e+00 2.3710106168595004e-02 5.8946402401461784e-01  0.0000000000000000e+00 2.1486441395676223e-02 5.4639934881087338e-01  0.0000000000000000e+00 1.9783873596217139e-02 5.0580228779320702e-01  0.0000000000000000e+00 1.8471182172049537e-02 4.6746841233534236e-01  0.0000000000000000e+00 1.7465490581370580e-02 4.3117002072592070e-01  0.0000000000000000e+00 1.6713576135436285e-02 3.9782724310939477e-01  0.0000000000000000e+00 1.6169296443685730e-02 3.6778640422397485e-01  0.0000000000000000e+00 1.5782775539930658e-02 3.4069255269980880e-01  0.0000000000000000e+00 1.5522809124126138e-02 3.1584219219777943e-01  0.0000000000000000e+00 1.5367848594519291e-02 2.9272700649269362e-01  0.0000000000000000e+00 1.5305681153954670e-02 2.7139377349518179e-01  0.0000000000000000e+00 1.5315583301995716e-02 2.5231749038321982e-01  0.0000000000000000e+00 1.5382809159775482e-02 2.3549120482209435e-01  0.0000000000000000e+00 1.5497784627737463e-02 2.2044274745697987e-01  0.0000000000000000e+00 1.5652644843341744e-02 2.0683902112430286e-01  0.0000000000000000e+00 1.5850189571842508e-02 1.9428865987703645e-01  0.0000000000000000e+00 1.6087549966518722e-02 1.8262654459555397e-01  0.0000000000000000e+00 1.6350831589935028e-02 1.7201723671401550e-01  0.0000000000000000e+00 1.6632464331353864e-02 1.6257947482064203e-01  0.0000000000000000e+00 1.6908819659859100e-02 1.5442072437167412e-01  0.0000000000000000e+00 1.7185045317404325e-02 1.4733378745273859e-01  0.0000000000000000e+00 1.7452930876924632e-02 1.4114660280470265e-01  0.0000000000000000e+00 1.7716947695821449e-02 1.3564608337170672e-01  0.0000000000000000e+00 1.7981308220729027e-02 1.3064433094090952e-01  0.0000000000000000e+00 1.8248147341688982e-02 1.2608847027943307e-01  0.0000000000000000e+00 1.8513004343753747e-02 1.2190312434459388e-01  0.0000000000000000e+00 1.8775717538487797e-02 1.1806159276442539e-01  0.0000000000000000e+00 1.9023751794445529e-02 1.1467235229144419e-01  0.0000000000000000e+00 1.9252134173440072e-02 1.1174490480395569e-01  0.0000000000000000e+00 1.9456023082107220e-02 1.0924718034670766e-01  0.0000000000000000e+00 1.9632843220462042e-02 1.0717850937124085e-01  0.0000000000000000e+00 1.9778034813141273e-02 1.0553362240801614e-01  0.0000000000000000e+00 1.6476099250516265e-02 1.6767651965820005e-01  0.0000000000000000e+00 6.5074492124620043e-01 6.0641740061533222e-01  0.0000000000000000e+00 1.5381765515549281e-02 2.3492005541788832e-01  0.0000000000000000e+00 4.5060372079614880e-01 8.6006880477326819e-01  0.0000000000000000e+00 1.9790579203722052e-02 1.0539950014581297e-01  0.0000000000000000e+00 7.9717645534343784e-01 3.7368594142868727e-01  0.0000000000000000e+00 2.0693368609944685e-02 5.2853203091024992e-01  0.0000000000000000e+00 1.3915654894730328e-01 9.9868793834530056e-01  0.0000000000000000e+00 8.2663736971179091e-01 3.2243003415983629e-01  0.0000000000000000e+00 6.9696993365533111e-01 5.3690816643743089e-01  0.0000000000000000e+00 1.5444558458376997e-02 3.0557325916736039e-01  0.0000000000000000e+00 7.3915566080719985e-01 4.7026615144758771e-01  0.0000000000000000e+00 7.4468447478337840e-01 4.6130561303570228e-01  0.0000000000000000e+00 1.9067913515651007e-02 4.8581432682229314e-01  0.0000000000000000e+00 6.0633480696645925e-01 6.6959441991895674e-01  0.0000000000000000e+00 1.6321007188354456e-02 1.7294536689354095e-01  0.0000000000000000e+00 7.7725931722160824e-01 4.0748260588691543e-01  0.0000000000000000e+00 8.0409054754252363e-01 3.6179373378434732e-01  0.0000000000000000e+00 1.7855034399174362e-02 1.3294370129648106e-01  0.0000000000000000e+00 4.4983680246441823e-02 7.9515516007277576e-01  0.0000000000000000e+00 5.0035569721134554e-01 8.0490858469814941e-01  0.0000000000000000e+00 1.4683284649828324e-01 1.0032195287510450e+00  0.0000000000000000e+00 1.8766095557283445e-02 1.1817896733685980e-01  0.0000000000000000e+00 8.1789259159266181e-01 3.3780412282773359e-01  0.0000000000000000e+00 3.7078767650774114e-01 9.3523963530304599e-01  0.0000000000000000e+00 2.5713962277320873e-01 1.0053900195331908e+00  0.0000000000000000e+00 1.9691685302650103e-02 1.0650012376654734e-01  0.0000000000000000e+00 1.8087583458918772e-02 1.2878886652855884e-01  0.0000000000000000e+00 5.7793622992610361e-01 7.0805896950303593e-01  0.0000000000000000e+00 8.1551570564980835e-01 3.4195901488611258e-01  0.0000000000000000e+00 4.0053127914881893e-02 7.6444853018332071e-01  0.0000000000000000e+00 1.5669970314266146e-02 3.3132078630561101e-01  0.0000000000000000e+00 8.2534032814035874e-01 3.2471978393927620e-01  0.0000000000000000e+00 2.7442355127592805e-01 9.9823538049322080e-01  0.0000000000000000e+00 3.4829898804832393e-01 9.5300406954733996e-01  0.0000000000000000e+00 2.0007317569363685e-02 1.0304719853955098e-01  0.0000000000000000e+00 7.7086879080673698e-01 4.1817941766553995e-01  0.0000000000000000e+00 6.9410320377750812e-01 5.4132842487940380e-01  0.0000000000000000e+00 1.9101226108187406e-02 1.1367017850039565e-01  0.0000000000000000e+00 1.5558938713614004e-02 2.1446080933672618e-01  0.0000000000000000e+00 5.1681075585488023e-01 7.8543418903627971e-01  0.0000000000000000e+00 8.2290081753229116e-01 3.2901627371001391e-01  0.0000000000000000e+00 7.4854566389805227e-02 9.0803097995958149e-01  0.0000000000000000e+00 1.6981364076599732e-02 1.5238116322206649e-01  0.0000000000000000e+00 2.7085761266255674e-02 6.4114775091091691e-01  0.0000000000000000e+00 8.2721035813988208e-01 3.2141861313247383e-01  0.0000000000000000e+00 8.0761034677449939e-01 3.5570711882122935e-01  0.0000000000000000e+00 2.0297267628659443e-01 1.0166442169200325e+00  0.0000000000000000e+00 6.6337227093280560e-01 5.8779870956567482e-01  0.0000000000000000e+00 1.7301336763235899e-02 1.4458719866425573e-01  0.0000000000000000e+00 1.5312736784351338e-02 2.7884575271650403e-01  0.0000000000000000e+00 2.4946481760069392e-02 6.1009509640137405e-01  0.0000000000000000e+00 7.9042942904456304e-01 3.8521171631368328e-01  0.0000000000000000e+00 7.7048522679548787e-02 9.1378804680570658e-01  0.0000000000000000e+00 6.1464121586506548e-01 6.5804729053959032e-01  0.0000000000000000e+00 1.6856267973087865e-02 4.0488435081476554e-01  0.0000000000