<?xml version="1.0"?>
<VTKFile type="UnstructuredGrid"  version="0.1"  >
<UnstructuredGrid>
<Piece  NumberOfPoints="4940" NumberOfCells="9650">
<Points>
<DataArray  type="Float64"  NumberOfComponents="3"  format="ascii">500 250 0  0 250 0  250 500 0  250 0 0  256.8885856082646 499.9050767557906 0  263.7719401218049 499.6203791065173 0  270.6448364229772 499.1461232471188 0  277.5020553257866 498.4826693209355 0  284.3383895508592 497.6305211460281 0  291.1486476865662 496.5903258312597 0  297.9276581259182 495.3628732847843 0  304.6702729675493 493.9490956196674 0  311.3713719748657 492.3500664368026 0  318.0258664141369 490.5670000199653 0  324.6287029687753 488.6012504015818 0  331.1748675330201 486.4543103455647 0  337.6593890460416 484.1278102064655 0  344.0773432429536 481.6235166997244 0  350.4238564271474 478.9433315480048 0  356.694109139292 476.0892900492477 0  362.88333985546 473.0635595140469 0  368.9868485575419 469.8684376402048 0  375.0000003153078 466.5063507640667 0  380.9182288257928 462.9798520074548 0  386.7370398729688 459.2916193419558 0  392.4520147244077 455.444453565817 0  398.0588135356345 451.4412761437442 0  403.5531785622926 447.285127045646 0  408.9309374414144 442.9791624087773 0  414.1880064015299 438.5266521049243 0  419.3203932989752 433.9309773069245 0  424.324200661095 429.1956279150535 0  429.1956286596235 424.3241998957182 0  433.9309780058756 419.3203925397119 0  438.5266527445345 414.1880056671062 0  442.9791630130591 408.9309367076756 0  447.2851276060475 403.5531778422888 0  451.4412766621026 398.0588128303826 0  455.4444540361634 392.4520140460735 0  459.2916197786263 386.7370392045948 0  462.9798524073514 380.9182281752347 0  466.5063511234856 374.9999996927758 0  469.8684379657123 368.9868479560565 0  473.0635598144817 362.8833392617846 0  476.0892903190255 356.6941085676214 0  478.9433317963513 350.4238558609745 0  481.6235169154735 344.0773427117675 0  484.12781039012 337.6593885555221 0  486.4543105028062 331.1748670749914 0  488.601250531677 324.6287025528375 0  490.5670001317469 318.0258660188321 0  492.3500665291326 311.3713716102628 0  493.949095695951 304.6702726271575 0  495.3628733416623 297.9276578347343 0  496.5903258712341 291.1486474470129 0  497.6305211749058 284.3383893426084 0  498.4826693388848 277.502055163614 0  499.1461232580606 270.6448362909296 0  499.6203791109319 263.7719400417897 0  499.9050767571306 256.8885855596534 0  499.9050767559877 243.1114143988867 0  499.6203791069493 236.2280598860241 0  499.1461232485393 229.3551635941651 0  498.4826693235677 222.4979446979962 0  497.6305211491849 215.6616104719064 0  496.5903258357701 208.8513523404629 0  495.3628732906988 202.0723419043604 0  493.9490956264813 195.3297270628552 0  492.3500664487791 188.6286280724281 0  490.5670000344809 181.9741336371959 0  488.6012504175981 175.3712970824318 0  486.4543103623226 168.8251325157939 0  484.1278102222298 162.3406109960628 0  481.6235167152198 155.9226567951971 0  478.9433315621651 149.5761436051346 0  476.0892900516498 143.3058908657982 0  473.063559513628 137.1166601437124 0  469.8684376406648 131.0131514433083 0  466.5063507675389 124.9999996907064 0  462.9798520124137 119.0817711822745 0  459.2916193464549 113.2629601339176 0  455.4444535642773 107.5479852733717 0  451.4412761528674 101.9411864767781 0  447.2851270583545 96.44682145403524 0  442.9791624165781 91.06906256805769 0  438.5266521117469 85.81199360630404 0  433.9309773156125 80.67960671046254 0  429.1956279150353 75.67579933888632 0  424.3241998888952 70.80437133373906 0  419.3203925223282 66.06902197812161 0  414.1880056411937 61.47334723289828 0  408.9309366751728 57.0208369601728 0  403.5531778009394 52.71487236176898 0  398.058812796452 48.55872331295853 0  392.4520140187753 44.55554594490843 0  386.7370391799677 40.70838020528396 0  380.9182281475119 37.02014757560744 0  374.9999996718656 33.49364886444181 0  368.9868479340393 30.13156202237255 0  362.8833392380029 26.93644017348339 0  356.6941085456942 23.91070967062674 0  350.4238558420009 21.0566681953261 0  344.0773426899492 18.37648307566465 0  337.6593885328982 15.87218960140942 0  331.1748670549786 13.54568949032341 0  324.6287025315056 11.39874946165088 0  318.0258660010876 9.432999863235466 0  311.3713716017894 7.649933468721599 0  304.6702726190621 6.050904302234756 0  297.9276578269805 4.637126656823085 0  291.148647441857 3.409674127905504 0  284.3383893425031 2.369478825079682 0  277.502055159398 1.517330660648639 0  270.6448362875833 0.853876741662134 0  263.7719400401456 0.3796208889774277 0  256.8885855592052 0.09492324285704967 0  243.1114143979462 0.09492324403817065 0  236.2280598850882 0.3796208931023841 0  229.3551635938215 0.8538767514891958 0  222.4979446968584 1.517330676558146 0  215.6616104703111 2.369478851036291 0  208.8513523382973 3.409674164591252 0  202.0723419066374 4.637126708856528 0  195.3297270659513 6.050904372824903 0  188.628628074828 7.649933550613184 0  181.9741336377093 9.432999965373938 0  175.3712970793675 11.39874958336037 0  168.8251325057572 13.54568964112298 0  162.340610986655 15.87218978129263 0  155.9226567874317 18.37648328793418 0  149.576143602509 21.05666843898663 0  143.3058908718157 23.91070994551046 0  137.1166601505524 26.93644048291054 0  131.0131514451933 30.13156235831508 0  124.9999996848412 33.49364923584736 0  119.0817711715717 37.0201479941652 0  113.2629601211624 40.70838066187849 0  107.5479852622251 44.55554644345162 0  101.9411864693332 48.55872385260452 0  96.44682143286516 52.71487295812284 0  91.06906254351222 57.02083760363669 0  85.81199358272519 61.4733479087879 0  80.67960667988106 66.06902271253972 0  75.67579930062769 70.80437212218331 0  70.80437129287643 75.67580015310926 0  66.06902193673014 80.67960752263491 0  61.47334718684866 85.81199441168215 0  57.02083692524275 91.0690633672404 0  52.71487232786438 96.44682224262129 0  48.55872328070024 101.941187247437 0  44.55554591578033 107.5479860232332 0  40.7083801742321 113.2629608675606 0  37.02014754791168 119.0817718975441 0  33.49364883372994 125.000000381329 0  30.13156199866361 131.0131521097709 0  26.9364401549829 137.1166607985551 0  23.91070965524918 143.3058914868915 0  21.05666818346614 149.576144185037 0  18.37648306853811 155.9226573275967 0  15.8721895918909 162.3406114925245 0  13.54568948170046 168.8251329701392 0  11.39874945301878 175.3712974960928 0  9.432999857087736 181.9741340206533 0  7.649933466342702 188.6286284076045 0  6.050904301250966 195.3297273853278 0  4.637126656808988 202.0723421730917 0  3.409674127767772 208.8513525589684 0  2.369478824521138 215.6616106615248 0  1.517330660909465 222.4979448382452 0  0.8538767414496533 229.355163714981 0  0.3796208887135322 236.2280599646376 0  0.09492324266324204 243.1114144478261 0  0.0949232442452228 256.8885856095658 0  0.3796208935834784 263.7719401236316 0  0.8538767530323526 270.6448364248016 0  1.517330679476544 277.5020553295092 0  2.369478854618649 284.3383895555228 0  3.409674170191892 291.1486476952655 0  4.6371267162381 297.9276581311522 0  6.050904381420935 304.6702729724059 0  7.649933562385399 311.3713719716595 0  9.43299997979841 318.0258664133013 0  11.3987495994252 324.6287029719946 0  13.54568965885832 331.174867545904 0  15.87218979367188 337.6593890464085 0  18.37648329843151 344.0773432384132 0  21.05666844777872 350.423856417535 0  23.91070995156048 356.6941091410045 0  26.93644048988043 362.8833398632205 0  30.13156235982007 368.9868485575877 0  33.49364924138357 375.0000003247478 0  37.0201480006036 380.9182288389023 0  40.70838066758398 386.7370398875706 0  44.55554644477201 392.4520147396792 0  48.55872386086904 398.0588135419111 0  52.71487295981296 403.5531785693063 0  57.02083760525949 408.9309374584583 0  61.47334790862246 414.1880064170849 0  66.06902271205095 419.320393319588 0  70.80437211216579 424.3242006890749 0  75.67580013809859 429.195628692521 0  80.6796075127923 433.930978054209 0  85.81199439754931 438.5266528008431 0  91.06906334717917 442.9791630582355 0  96.44682221438322 447.2851276501571 0  101.9411872243843 451.441276702356 0  107.5479859945825 455.4444540643537 0  113.2629608446994 459.2916198108319 0  119.0817718768376 462.9798524393601 0  125.0000003647644 466.5063511567065 0  131.0131521012763 469.8684379967393 0  137.1166607840049 473.0635598376539 0  143.3058914748804 476.0892903390826 0  149.5761441732679 478.9433318113714 0  155.9226573130112 481.6235169255377 0  162.3406114779862 484.1278104026658 0  168.8251329570439 486.4543105138039 0  175.3712974805475 488.601250542119 0  181.9741340135204 490.5670001408953 0  188.6286284005059 492.3500665318597 0  195.3297273788229 493.9490956972913 0  202.0723421640089 495.3628733414168 0  208.8513525529672 496.5903258712308 0  215.6616106544547 497.6305211744985 0  222.4979448327038 498.4826693384772 0  229.3551637102845 499.1461232581612 0  236.2280599621369 499.6203791111485 0  243.1114144470173 499.9050767573145 0  155.2373389820306 474.8197567317462 0  25.36256300907667 153.9152755065208 0  432.3709625126712 412.6214396304305 0  6.013151705810699 246.637913163471 0  246.6379131630491 493.986848294322 0  338.6995838441862 22.68244767887072 0  477.3175523131281 338.6995838660569 0  493.9868482700757 246.6379131399102 0  246.6201155078769 6.218451882810491 0  417.6179310263282 72.7156044707053 0  102.2232990934413 445.0100869616822 0  63.66330858966404 92.20354579482142 0  391.3105220491464 50.73522820883105 0  72.79295043967942 418.0702734974704 0  448.290574428537 108.25674339002 0  402.4604651193511 440.7462829841712 0  97.55317348421397 59.11376320116034 0  136.7376477664901 33.58246472647134 0  363.3288394375288 465.6947312928271 0  44.0678766556007 381.0860953771871 0  469.6905266180034 142.3890690100806 0  22.68244791668644 338.6995843487432 0  338.699584349159 477.317552078365 0  173.389488083762 18.6681884918202 0  483.4809734778481 179.7121987795732 0  13.50237455842738 306.4709525540879 0  305.9825168523021 487.24416992
[...]
<PointData  Vectors="f_12"> 
<DataArray  type="Float64"  Name="f_12"  NumberOfComponents="3" format="ascii">0.0000000000000000e+00 9.4437053944886895e-01 8.7118575188698172e-02  0.0000000000000000e+00 9.4241842574836210e-01 4.5318412939493492e-02  0.0000000000000000e+00 7.5652471191392867e-01 4.4190863151458720e-01  0.0000000000000000e+00 7.6150415806586147e-01 1.4474982998726963e-02  0.0000000000000000e+00 7.5508924653482423e-01 4.4426920864261937e-01  0.0000000000000000e+00 7.5430622941181591e-01 4.4555357012607766e-01  0.0000000000000000e+00 7.5378955308692841e-01 4.4640086057243467e-01  0.0000000000000000e+00 7.5383474788291283e-01 4.4632737079154766e-01  0.0000000000000000e+00 7.5430760526005869e-01 4.4555137017984769e-01  0.0000000000000000e+00 7.5523405677258060e-01 4.4403018738815719e-01  0.0000000000000000e+00 7.5657896908599809e-01 4.4181920962977866e-01  0.0000000000000000e+00 7.5827624374841474e-01 4.3902471526708836e-01  0.0000000000000000e+00 7.6033893556478949e-01 4.3562248777825513e-01  0.0000000000000000e+00 7.6277856768762786e-01 4.3158826555922636e-01  0.0000000000000000e+00 7.6578767317946717e-01 4.2659866432828530e-01  0.0000000000000000e+00 7.6865490915551637e-01 4.2183243470072213e-01  0.0000000000000000e+00 7.7238091063667558e-01 4.1561448824934882e-01  0.0000000000000000e+00 7.7595800390865166e-01 4.0962323671696094e-01  0.0000000000000000e+00 7.7983611395792318e-01 4.0310421304995164e-01  0.0000000000000000e+00 7.8391113396280809e-01 3.9622650961800926e-01  0.0000000000000000e+00 7.8806951209820886e-01 3.8917799644472340e-01  0.0000000000000000e+00 7.9247072924155670e-01 3.8168425640576659e-01  0.0000000000000000e+00 7.9699607301242803e-01 3.7394619370906679e-01  0.0000000000000000e+00 8.0147876785172656e-01 3.6624473842911925e-01  0.0000000000000000e+00 8.0612065630180674e-01 3.5823382098757239e-01  0.0000000000000000e+00 8.1098350239038797e-01 3.4979949173350317e-01  0.0000000000000000e+00 8.1609153449433491e-01 3.4089585142706141e-01  0.0000000000000000e+00 8.2108554610566276e-01 3.3214647265363106e-01  0.0000000000000000e+00 8.2611445220910984e-01 3.2328956182306939e-01  0.0000000000000000e+00 8.3132086641271730e-01 3.1407065545482449e-01  0.0000000000000000e+00 8.3634410916601398e-01 3.0512779748787039e-01  0.0000000000000000e+00 8.4134662443165653e-01 2.9617064336191284e-01  0.0000000000000000e+00 8.4632687399724904e-01 2.8720528999230460e-01  0.0000000000000000e+00 8.5123460751246860e-01 2.7832051485156106e-01  0.0000000000000000e+00 8.5627167700389917e-01 2.6914792408999394e-01  0.0000000000000000e+00 8.6127658665725748e-01 2.5998161945636156e-01  0.0000000000000000e+00 8.6615828840145925e-01 2.5098684430163065e-01  0.0000000000000000e+00 8.7100284811991335e-01 2.4200213857898567e-01  0.0000000000000000e+00 8.7575206697189401e-01 2.3313357455464623e-01  0.0000000000000000e+00 8.8029624064597878e-01 2.2458890951089827e-01  0.0000000000000000e+00 8.8468141266262823e-01 2.1628489473254431e-01  0.0000000000000000e+00 8.8907570203218367e-01 2.0790265662395371e-01  0.0000000000000000e+00 8.9345938178706052e-01 1.9947672561984206e-01  0.0000000000000000e+00 8.9765461043517347e-01 1.9134263496424933e-01  0.0000000000000000e+00 9.0168548513488966e-01 1.8345214473383276e-01  0.0000000000000000e+00 9.0555208607439042e-01 1.7580671405043208e-01  0.0000000000000000e+00 9.0924847012391075e-01 1.6841647494619766e-01  0.0000000000000000e+00 9.1279345463590933e-01 1.6124450727688744e-01  0.0000000000000000e+00 9.1629329104392299e-01 1.5407256841448466e-01  0.0000000000000000e+00 9.1962222311866881e-01 1.4715282726343321e-01  0.0000000000000000e+00 9.2273543813965508e-01 1.4056505884503084e-01  0.0000000000000000e+00 9.2565930280876862e-01 1.3425796653675873e-01  0.0000000000000000e+00 9.2840730665083615e-01 1.2819741252755859e-01  0.0000000000000000e+00 9.3104063131371562e-01 1.2224942794094232e-01  0.0000000000000000e+00 9.3351793201408939e-01 1.1649652542720196e-01  0.0000000000000000e+00 9.3579327482543107e-01 1.1102884903278423e-01  0.0000000000000000e+00 9.3787670827857850e-01 1.0581348183121708e-01  0.0000000000000000e+00 9.3977318234036256e-01 1.0083591091432907e-01  0.0000000000000000e+00 9.4150776556664184e-01 9.6038692754601127e-02  0.0000000000000000e+00 9.4302056327651007e-01 9.1565678263662992e-02  0.0000000000000000e+00 9.4557816648980775e-01 8.2876493543895771e-02  0.0000000000000000e+00 9.4654403280329591e-01 7.8914946446402096e-02  0.0000000000000000e+00 9.4727985406697790e-01 7.5233276684357295e-02  0.0000000000000000e+00 9.4785420591222003e-01 7.1621297473010839e-02  0.0000000000000000e+00 9.4822184146479260e-01 6.8180957999597488e-02  0.0000000000000000e+00 9.4838748483903412e-01 6.4892558312142787e-02  0.0000000000000000e+00 9.4831919267771336e-01 6.1822725646649708e-02  0.0000000000000000e+00 9.4802737428975259e-01 5.8933719880576746e-02  0.0000000000000000e+00 9.4751663832862476e-01 5.6177578451890815e-02  0.0000000000000000e+00 9.4677854251939753e-01 5.3546253153473194e-02  0.0000000000000000e+00 9.4580313082549261e-01 5.1033903594703750e-02  0.0000000000000000e+00 9.4458949759350885e-01 4.8687478974333155e-02  0.0000000000000000e+00 9.4313036418876717e-01 4.6481847091514608e-02  0.0000000000000000e+00 9.4142227737265938e-01 4.4401945862806276e-02  0.0000000000000000e+00 9.3945697444983578e-01 4.2417183744256938e-02  0.0000000000000000e+00 9.3722860355550242e-01 4.0529751482256619e-02  0.0000000000000000e+00 9.3474056042281228e-01 3.8746957901101158e-02  0.0000000000000000e+00 9.3200071926243755e-01 3.7084383705552754e-02  0.0000000000000000e+00 9.2901020043807148e-01 3.5531598626129798e-02  0.0000000000000000e+00 9.2575883971741879e-01 3.4064191122749991e-02  0.0000000000000000e+00 9.2221735604317634e-01 3.2659325550904277e-02  0.0000000000000000e+00 9.1841941126240589e-01 3.1336824319969793e-02  0.0000000000000000e+00 9.1435866664664811e-01 3.0085891629686265e-02  0.0000000000000000e+00 9.1009467372284691e-01 2.8925052214762340e-02  0.0000000000000000e+00 9.0562124552539358e-01 2.7844467397700436e-02  0.0000000000000000e+00 9.0093570593859351e-01 2.6831933016423330e-02  0.0000000000000000e+00 8.9602053684327054e-01 2.5874032751030906e-02  0.0000000000000000e+00 8.9087143187398254e-01 2.4963167780257763e-02  0.0000000000000000e+00 8.8552295352171517e-01 2.4100027021536637e-02  0.0000000000000000e+00 8.8001694523211205e-01 2.3292212795500644e-02  0.0000000000000000e+00 8.7441698577868665e-01 2.2544423143497822e-02  0.0000000000000000e+00 8.6875296720431505e-01 2.1853231316720470e-02  0.0000000000000000e+00 8.6299583708236582e-01 2.1208023390088003e-02  0.0000000000000000e+00 8.5720451766122951e-01 2.0607053950715687e-02  0.0000000000000000e+00 8.5140026335356844e-01 2.0046677601923212e-02  0.0000000000000000e+00 8.4543502271271309e-01 1.9505935770648377e-02  0.0000000000000000e+00 8.3943963080953610e-01 1.8996327150940972e-02  0.0000000000000000e+00 8.3359695715824111e-01 1.8533084426185446e-02  0.0000000000000000e+00 8.2774162482508118e-01 1.8095568298221218e-02  0.0000000000000000e+00 8.2195602675724666e-01 1.7687149846687750e-02  0.0000000000000000e+00 8.1651420902202243e-01 1.7326885992189112e-02  0.0000000000000000e+00 8.1120046890292763e-01 1.6994159469547805e-02  0.0000000000000000e+00 8.0609070124243454e-01 1.6688435946847817e-02  0.0000000000000000e+00 8.0114330165537162e-01 1.6404432327873617e-02  0.0000000000000000e+00 7.9639937078422018e-01 1.6142540163713779e-02  0.0000000000000000e+00 7.9184754982428884e-01 1.5899942717949166e-02  0.0000000000000000e+00 7.8754039844121326e-01 1.5677886809569063e-02  0.0000000000000000e+00 7.8351469647328498e-01 1.5476651699160538e-02  0.0000000000000000e+00 7.7971437374177377e-01 1.5291632099682489e-02  0.0000000000000000e+00 7.7616737693617821e-01 1.5122742951113851e-02  0.0000000000000000e+00 7.7297991665601740e-01 1.4974677334843861e-02  0.0000000000000000e+00 7.7017488310228455e-01 1.4848023541920290e-02  0.0000000000000000e+00 7.6777048595186881e-01 1.4742747642415226e-02  0.0000000000000000e+00 7.6563170262847946e-01 1.4650265650959986e-02  0.0000000000000000e+00 7.6389913082336980e-01 1.4576094974008634e-02  0.0000000000000000e+00 7.6249627271414311e-01 1.4516152551931725e-02  0.0000000000000000e+00 7.6105330114774727e-01 1.4457771548376104e-02  0.0000000000000000e+00 7.6010757398071160e-01 1.4414027336654507e-02  0.0000000000000000e+00 7.6055137418651575e-01 1.4435694406487407e-02  0.0000000000000000e+00 7.6094539932692140e-01 1.4452127822138774e-02  0.0000000000000000e+00 7.6163042861964392e-01 1.4480438255725361e-02  0.0000000000000000e+00 7.6272070521199820e-01 1.4526734187086675e-02  0.0000000000000000e+00 7.6420078274905701e-01 1.4590313469160822e-02  0.0000000000000000e+00 7.6592184672802388e-01 1.4664232440603341e-02  0.0000000000000000e+00 7.6798763570671125e-01 1.4754446423959620e-02  0.0000000000000000e+00 7.6995652585453145e-01 1.4838643826017125e-02  0.0000000000000000e+00 7.7281113094235843e-01 1.4968896043453514e-02  0.0000000000000000e+00 7.7575378391366512e-01 1.5105355613132317e-02  0.0000000000000000e+00 7.7892154168334571e-01 1.5254998886758790e-02  0.0000000000000000e+00 7.8216791495861737e-01 1.5409927619844617e-02  0.0000000000000000e+00 7.8568976912286259e-01 1.5583172506797326e-02  0.0000000000000000e+00 7.8953669841376817e-01 1.5779288244518408e-02  0.0000000000000000e+00 7.9343963993661459e-01 1.5982879809755678e-02  0.0000000000000000e+00 7.9746389874372647e-01 1.6198186297637241e-02  0.0000000000000000e+00 8.0159752539045914e-01 1.6426469343878904e-02  0.0000000000000000e+00 8.0585329559844132e-01 1.6670193141495697e-02  0.0000000000000000e+00 8.1026236222413639e-01 1.6933117682637600e-02  0.0000000000000000e+00 8.1479845990144939e-01 1.7214461452848037e-02  0.0000000000000000e+00 8.1938038597529839e-01 1.7510439796280607e-02  0.0000000000000000e+00 8.2403492884466945e-01 1.7825266311013815e-02  0.0000000000000000e+00 8.2877911122956927e-01 1.8162212184255878e-02  0.0000000000000000e+00 8.3358312855219618e-01 1.8521158920546146e-02  0.0000000000000000e+00 8.3842809696477716e-01 1.8902547626753946e-02  0.0000000000000000e+00 8.4326792055363375e-01 1.9304103680117469e-02  0.0000000000000000e+00 8.4807862742749340e-01 1.9724783114182239e-02  0.0000000000000000e+00 8.5282574312087245e-01 2.0162450384293290e-02  0.0000000000000000e+00 8.5749254915678952e-01 2.0616271720821130e-02  0.0000000000000000e+00 8.6205590995088821e-01 2.1084463716609551e-02  0.0000000000000000e+00 8.6654632372103058e-01 2.1573226423456379e-02  0.0000000000000000e+00 8.7097719990184763e-01 2.2088388616638983e-02  0.0000000000000000e+00 8.7540301863472325e-01 2.2639078439310008e-02  0.0000000000000000e+00 8.7977132851563544e-01 2.3222720532506642e-02  0.0000000000000000e+00 8.8407008687145228e-01 2.3840350057746554e-02  0.0000000000000000e+00 8.8826543780536238e-01 2.4487597123534852e-02  0.0000000000000000e+00 8.9233259096275097e-01 2.5162544481346191e-02  0.0000000000000000e+00 8.9624318612243736e-01 2.5860624289976302e-02  0.0000000000000000e+00 9.0006585726572907e-01 2.6597437297790242e-02  0.0000000000000000e+00 9.0373187789341414e-01 2.7359695081379969e-02  0.0000000000000000e+00 9.0721163329536181e-01 2.8144047767940213e-02  0.0000000000000000e+00 9.1062002188296631e-01 2.8981947255475569e-02  0.0000000000000000e+00 9.1394736045538039e-01 2.9882554579624288e-02  0.0000000000000000e+00 9.1716161148747377e-01 3.0842169638767646e-02  0.0000000000000000e+00 9.2017729418738414e-01 3.1828461403682159e-02  0.0000000000000000e+00 9.2312913844759992e-01 3.2900287299315815e-02  0.0000000000000000e+00 9.2586869081047518e-01 3.3994059412554338e-02  0.0000000000000000e+00 9.2846134229390276e-01 3.5137196502012247e-02  0.0000000000000000e+00 9.3087075161477839e-01 3.6329475749242203e-02  0.0000000000000000e+00 9.3317178772162279e-01 3.7608285549978825e-02  0.0000000000000000e+00 9.3534273149284131e-01 3.8983796443948809e-02  0.0000000000000000e+00 9.3735878819968699e-01 4.0448947424263824e-02  0.0000000000000000e+00 9.3921116678959082e-01 4.1992943693775410e-02  0.0000000000000000e+00 9.4089826519022590e-01 4.3614018895667801e-02  0.0000000000000000e+00 9.4377511046153306e-01 4.7114016791015741e-02  0.0000000000000000e+00 9.4496632168020012e-01 4.9025288941137037e-02  0.0000000000000000e+00 9.4598751585737773e-01 5.1077657280312334e-02  0.0000000000000000e+00 9.4684026694324053e-01 5.3270644188420140e-02  0.0000000000000000e+00 9.4751790431727589e-01 5.5593805256036605e-02  0.0000000000000000e+00 9.4802057254690009e-01 5.8039477856604661e-02  0.0000000000000000e+00 9.4834682397275871e-01 6.0617174291258819e-02  0.0000000000000000e+00 9.4849137335719202e-01 6.3363468646037258e-02  0.0000000000000000e+00 9.4844357957620762e-01 6.6315044092129419e-02  0.0000000000000000e+00 9.4819709859123302e-01 6.9485183094246644e-02  0.0000000000000000e+00 9.4775804462756374e-01 7.2847135004382446e-02  0.0000000000000000e+00 9.4714044853902724e-01 7.6373336608342085e-02  0.0000000000000000e+00 9.4633346227830895e-01 8.0091330174978798e-02  0.0000000000000000e+00 9.4531298883597581e-01 8.4078162323605252e-02  0.0000000000000000e+00 9.4407575977590519e-01 8.8340115782211445e-02  0.0000000000000000e+00 9.4261330950417310e-01 9.2897310984926679e-02  0.0000000000000000e+00 9.4095088350145661e-01 9.7698289669795629e-02  0.0000000000000000e+00 9.3910388257468835e-01 1.0271128667444444e-01  0.0000000000000000e+00 9.3701715071011238e-01 1.0806278564674004e-01  0.0000000000000000e+00 9.3468595400696730e-01 1.1377176390894390e-01  0.0000000000000000e+00 9.3209644711558792e-01 1.1986390953277218e-01  0.0000000000000000e+00 9.2929506273243978e-01 1.2624674847883582e-01  0.0000000000000000e+00 9.2629512558376248e-01 1.3289891321573355e-01  0.0000000000000000e+00 9.2304665254656715e-01 1.3992442935715513e-01  0.0000000000000000e+00 9.1951887585867986e-01 1.4738631444044906e-01  0.0000000000000000e+00 9.1570671340666232e-01 1.5529548977857915e-01  0.0000000000000000e+00 9.1165882200517634e-01 1.6356020191200399e-01  0.0000000000000000e+00 9.0743555264342135e-01 1.7205897041622148e-01  0.0000000000000000e+00 9.0295108731471918e-01 1.8096324026282251e-01  0.0000000000000000e+00 8.9820457335611803e-01 1.9027314927698702e-01  0.0000000000000000e+00 8.9317874094807759e-01 2.0002005333323858e-01  0.0000000000000000e+00 8.8792234743579546e-01 2.1011048057495926e-01  0.0000000000000000e+00 8.8250966142066389e-01 2.2040526919451220e-01  0.0000000000000000e+00 8.7690133694464611e-01 2.3097713340299542e-01  0.0000000000000000e+00 8.7103170718287060e-01 2.4194585008805702e-01  0.0000000000000000e+00 8.6500165222082948e-01 2.5312130105033576e-01  0.0000000000000000e+00 8.5881418501071771e-01 2.6449741238538166e-01  0.0000000000000000e+00 8.5245308016309584e-01 2.7610530926533017e-01  0.0000000000000000e+00 8.4611475478807907e-01 2.8758718613204060e-01  0.0000000000000000e+00 8.3973791576904944e-01 2.9905470597704570e-01  0.0000000000000000e+00 8.3324247798147655e-01 3.1065291192622108e-01  0.0000000000000000e+00 8.2671303191879097e-01 3.2222987447844215e-01  0.0000000000000000e+00 8.2012695464544083e-01 3.3382739195282096e-01  0.0000000000000000e+00 8.1378557785222494e-01 3.4491924723595802e-01  0.0000000000000000e+00 8.0750835630225570e-01 3.5582934354362661e-01  0.0000000000000000e+00 8.0148825611753316e-01 3.6622721036636247e-01  0.0000000000000000e+00 7.9574111045038154e-01 3.7609348657490410e-01  0.0000000000000000e+00 7.9021825733421880e-01 3.8552211220706212e-01  0.0000000000000000e+00 7.8500547341045701e-01 3.9437412817375878e-01  0.0000000000000000e+00 7.8004492132174374e-01 4.0275101088350740e-01  0.0000000000000000e+00 7.7528853065978132e-01 4.1074528416912010e-01  0.0000000000000000e+00 7.7099581770842063e-01 4.1792668686744644e-01  0.0000000000000000e+00 7.6717819755621508e-01 4.2428805433744743e-01  0.0000000000000000e+00 7.6379371881650648e-01 4.2990518235818315e-01  0.0000000000000000e+00 7.6089914460305275e-01 4.3469630390921521e-01  0.0000000000000000e+00 7.5856127578865118e-01 4.3855420133699713e-01  0.0000000000000000e+00 8.2459417020629910e-01 3.2596899233490478e-01  0.0000000000000000e+00 9.0534633672600329e-01 2.7730869111992275e-02  0.0000000000000000e+00 8.5507740791608078e-01 2.7132888840241404e-01  0.0000000000000000e+00 9.4178861844259476e-01 4.4607943633963670e-02  0.0000000000000000e+00 7.5972014751959860e-01 4.3664291489189655e-01  0.0000000000000000e+00 8.0506857145182431e-01 1.6641999643660223e-02  0.0000000000000000e+00 9.1151658103717381e-01 1.6383604113385003e-01  0.0000000000000000e+00 9.4508390573426693e-01 8.4718557140474327e-02  0.0000000000000000e+00 7.6327890812132615e-01 1.4565996241179865e-02  0.0000000000000000e+00 8.8323168230847948e-01 2.3765171077026775e-02  0.0000000000000000e+00 8.8039474349801383e-01 2.2440185679140337e-01  0.0000000000000000e+00 8.6068839874728831e-01 2.0955637561246437e-02  0.0000000000000000e+00 8.5442992282712127e-01 2.0345470850495727e-02  0.0000000000000000e+00 9.0968511306618161e-01 1.6754676706113864e-01  0.0000000000000000e+00 9.1652552065559345e-01 3.0741721903943076e-02  0.0000000000000000e+00 8.2475116859421915e-01 3.2569519704117827e-01  0.0000000000000000e+00 8.2737325873701650e-01 1.8073825139929965e-02  0.0000000000000000e+00 7.9693599691903827e-01 1.6183033191508323e-02  0.0000000000000000e+00 7.9232296083289433e-01 3.8194053282888540e-01  0.0000000000000000e+00 9.3330394503090119e-01 1.1704631520318920e-01  0.0000000000000000e+00 9.3596712134512028e-01 3.9594594207763532e-02  0.0000000000000000e+00 9.4584062508826017e-01 8.2088583340382035e-02  0.0000000000000000e+00 7.7602365997451783e-01 4.0951406905697380e-01  0.0000000000000000e+00 7.7657047466629348e-01 1.5158711973669831e-02  0.0000000000000000e+00 9.4619397120500137e-01 5.1953386287897634e-02  0.0000000000000000e+00 9.4847764165468285e-01 6.4981945727651882e-02  0.0000000000000000e+00 7.6145248534038679e-01 4.3378138370297831e-01  0.0000000000000000e+00 7.8930418377647826e-01 3.8707937784369523e-01  0.0000000000000000e+00 9.2480102303726430e-01 3.3575629220222537e-02  0.0000000000000000e+00 7.7979042134040266e-01 1.5309776231847740e-02  0.0000000000000000e+00 9.3000757825309410e-01 1.2460163413583034e-01  0.0000000000000000e+00 8.8240243433941257e-01 2.2060612092289272e-01  0.0000000000000000e+00 7.6533554555949390e-01 1.4651557422039422e-02  0.0000000000000000e+00 9.4837241729370547e-01 6.3012096707856624e-02  0.0000000000000000e+00 9.4722804193833798e-01 5.4560666945265138e-02  0.0000000000000000e+00 7.5624484973547723e-01 4.4236787563287400e-01  0.0000000000000000e+00 8.3182137743692441e-01 1.8409136871682198e-02  0.0000000000000000e+00 8.8679887601251017e-01 2.4270275143310593e-02  0.0000000000000000e+00 7.7099478654266362e-01 4.1792848051636716e-01  0.0000000000000000e+00 8.5039517874965476e-01 2.7984504719324022e-01  0.0000000000000000e+00 9.3472652964457137e-01 3.8599299568093319e-02  0.0000000000000000e+00 7.6885323550757190e-01 1.4806343332698082e-02  0.0000000000000000e+00 9.3878987735333108e-01 1.0344446419408093e-01  0.0000000000000000e+00 8.1076470574932502e-01 3.5017972633470634e-01  0.0000000000000000e+00 9.2160622903066847e-01 1.4296869933760625e-01  0.0000000000000000e+00 7.6247514759785140e-01 1.4529028070607939e-02  0.0000000000000000e+00 7.9131830233211609e-01 1.5885402419882066e-02  0.0000000000000000e+00 9.4763610071159743e-01 7.3149697341631223e-02  0.0000000000000000e+00 8.9863879554273740e-01 2.6382999392135561e-02  0.0000000000000000e+00 8.0591817163754553e-01 3.5857937003109758e-01  0.0000000000000000e+00 8.6978822017286639e-01 2.4426099634962681e-01  0.0000000000000000e+00 9.2130157252398559e-01 1.4363647959798717e-01  0.0000000000000000e+00 8.1394305822752744e-01 1.7174342624488591e-02  0.0000000000000000e+00 9.3994490002425035e-01 1.0046540098436131e-01  0.0000000000000000e+00 9.1594931445188199e-01 3.0488592758361015e-02  0.0000000000000000e+00 8.9621318341760825e-01 1.9414465360564009e-01  0.0000000000