<?xml version="1.0"?>
<VTKFile type="UnstructuredGrid"  version="0.1"  >
<UnstructuredGrid>
<Piece  NumberOfPoints="4940" NumberOfCells="9650">
<Points>
<DataArray  type="Float64"  NumberOfComponents="3"  format="ascii">500 250 0  0 250 0  250 500 0  250 0 0  256.8885856082646 499.9050767557906 0  263.7719401218049 499.6203791065173 0  270.6448364229772 499.1461232471188 0  277.5020553257866 498.4826693209355 0  284.3383895508592 497.6305211460281 0  291.1486476865662 496.5903258312597 0  297.9276581259182 495.3628732847843 0  304.6702729675493 493.9490956196674 0  311.3713719748657 492.3500664368026 0  318.0258664141369 490.5670000199653 0  324.6287029687753 488.6012504015818 0  331.1748675330201 486.4543103455647 0  337.6593890460416 484.1278102064655 0  344.0773432429536 481.6235166997244 0  350.4238564271474 478.9433315480048 0  356.694109139292 476.0892900492477 0  362.88333985546 473.0635595140469 0  368.9868485575419 469.8684376402048 0  375.0000003153078 466.5063507640667 0  380.9182288257928 462.9798520074548 0  386.7370398729688 459.2916193419558 0  392.4520147244077 455.444453565817 0  398.0588135356345 451.4412761437442 0  403.5531785622926 447.285127045646 0  408.9309374414144 442.9791624087773 0  414.1880064015299 438.5266521049243 0  419.3203932989752 433.9309773069245 0  424.324200661095 429.1956279150535 0  429.1956286596235 424.3241998957182 0  433.9309780058756 419.3203925397119 0  438.5266527445345 414.1880056671062 0  442.9791630130591 408.9309367076756 0  447.2851276060475 403.5531778422888 0  451.4412766621026 398.0588128303826 0  455.4444540361634 392.4520140460735 0  459.2916197786263 386.7370392045948 0  462.9798524073514 380.9182281752347 0  466.5063511234856 374.9999996927758 0  469.8684379657123 368.9868479560565 0  473.0635598144817 362.8833392617846 0  476.0892903190255 356.6941085676214 0  478.9433317963513 350.4238558609745 0  481.6235169154735 344.0773427117675 0  484.12781039012 337.6593885555221 0  486.4543105028062 331.1748670749914 0  488.601250531677 324.6287025528375 0  490.5670001317469 318.0258660188321 0  492.3500665291326 311.3713716102628 0  493.949095695951 304.6702726271575 0  495.3628733416623 297.9276578347343 0  496.5903258712341 291.1486474470129 0  497.6305211749058 284.3383893426084 0  498.4826693388848 277.502055163614 0  499.1461232580606 270.6448362909296 0  499.6203791109319 263.7719400417897 0  499.9050767571306 256.8885855596534 0  499.9050767559877 243.1114143988867 0  499.6203791069493 236.2280598860241 0  499.1461232485393 229.3551635941651 0  498.4826693235677 222.4979446979962 0  497.6305211491849 215.6616104719064 0  496.5903258357701 208.8513523404629 0  495.3628732906988 202.0723419043604 0  493.9490956264813 195.3297270628552 0  492.3500664487791 188.6286280724281 0  490.5670000344809 181.9741336371959 0  488.6012504175981 175.3712970824318 0  486.4543103623226 168.8251325157939 0  484.1278102222298 162.3406109960628 0  481.6235167152198 155.9226567951971 0  478.9433315621651 149.5761436051346 0  476.0892900516498 143.3058908657982 0  473.063559513628 137.1166601437124 0  469.8684376406648 131.0131514433083 0  466.5063507675389 124.9999996907064 0  462.9798520124137 119.0817711822745 0  459.2916193464549 113.2629601339176 0  455.4444535642773 107.5479852733717 0  451.4412761528674 101.9411864767781 0  447.2851270583545 96.44682145403524 0  442.9791624165781 91.06906256805769 0  438.5266521117469 85.81199360630404 0  433.9309773156125 80.67960671046254 0  429.1956279150353 75.67579933888632 0  424.3241998888952 70.80437133373906 0  419.3203925223282 66.06902197812161 0  414.1880056411937 61.47334723289828 0  408.9309366751728 57.0208369601728 0  403.5531778009394 52.71487236176898 0  398.058812796452 48.55872331295853 0  392.4520140187753 44.55554594490843 0  386.7370391799677 40.70838020528396 0  380.9182281475119 37.02014757560744 0  374.9999996718656 33.49364886444181 0  368.9868479340393 30.13156202237255 0  362.8833392380029 26.93644017348339 0  356.6941085456942 23.91070967062674 0  350.4238558420009 21.0566681953261 0  344.0773426899492 18.37648307566465 0  337.6593885328982 15.87218960140942 0  331.1748670549786 13.54568949032341 0  324.6287025315056 11.39874946165088 0  318.0258660010876 9.432999863235466 0  311.3713716017894 7.649933468721599 0  304.6702726190621 6.050904302234756 0  297.9276578269805 4.637126656823085 0  291.148647441857 3.409674127905504 0  284.3383893425031 2.369478825079682 0  277.502055159398 1.517330660648639 0  270.6448362875833 0.853876741662134 0  263.7719400401456 0.3796208889774277 0  256.8885855592052 0.09492324285704967 0  243.1114143979462 0.09492324403817065 0  236.2280598850882 0.3796208931023841 0  229.3551635938215 0.8538767514891958 0  222.4979446968584 1.517330676558146 0  215.6616104703111 2.369478851036291 0  208.8513523382973 3.409674164591252 0  202.0723419066374 4.637126708856528 0  195.3297270659513 6.050904372824903 0  188.628628074828 7.649933550613184 0  181.9741336377093 9.432999965373938 0  175.3712970793675 11.39874958336037 0  168.8251325057572 13.54568964112298 0  162.340610986655 15.87218978129263 0  155.9226567874317 18.37648328793418 0  149.576143602509 21.05666843898663 0  143.3058908718157 23.91070994551046 0  137.1166601505524 26.93644048291054 0  131.0131514451933 30.13156235831508 0  124.9999996848412 33.49364923584736 0  119.0817711715717 37.0201479941652 0  113.2629601211624 40.70838066187849 0  107.5479852622251 44.55554644345162 0  101.9411864693332 48.55872385260452 0  96.44682143286516 52.71487295812284 0  91.06906254351222 57.02083760363669 0  85.81199358272519 61.4733479087879 0  80.67960667988106 66.06902271253972 0  75.67579930062769 70.80437212218331 0  70.80437129287643 75.67580015310926 0  66.06902193673014 80.67960752263491 0  61.47334718684866 85.81199441168215 0  57.02083692524275 91.0690633672404 0  52.71487232786438 96.44682224262129 0  48.55872328070024 101.941187247437 0  44.55554591578033 107.5479860232332 0  40.7083801742321 113.2629608675606 0  37.02014754791168 119.0817718975441 0  33.49364883372994 125.000000381329 0  30.13156199866361 131.0131521097709 0  26.9364401549829 137.1166607985551 0  23.91070965524918 143.3058914868915 0  21.05666818346614 149.576144185037 0  18.37648306853811 155.9226573275967 0  15.8721895918909 162.3406114925245 0  13.54568948170046 168.8251329701392 0  11.39874945301878 175.3712974960928 0  9.432999857087736 181.9741340206533 0  7.649933466342702 188.6286284076045 0  6.050904301250966 195.3297273853278 0  4.637126656808988 202.0723421730917 0  3.409674127767772 208.8513525589684 0  2.369478824521138 215.6616106615248 0  1.517330660909465 222.4979448382452 0  0.8538767414496533 229.355163714981 0  0.3796208887135322 236.2280599646376 0  0.09492324266324204 243.1114144478261 0  0.0949232442452228 256.8885856095658 0  0.3796208935834784 263.7719401236316 0  0.8538767530323526 270.6448364248016 0  1.517330679476544 277.5020553295092 0  2.369478854618649 284.3383895555228 0  3.409674170191892 291.1486476952655 0  4.6371267162381 297.9276581311522 0  6.050904381420935 304.6702729724059 0  7.649933562385399 311.3713719716595 0  9.43299997979841 318.0258664133013 0  11.3987495994252 324.6287029719946 0  13.54568965885832 331.174867545904 0  15.87218979367188 337.6593890464085 0  18.37648329843151 344.0773432384132 0  21.05666844777872 350.423856417535 0  23.91070995156048 356.6941091410045 0  26.93644048988043 362.8833398632205 0  30.13156235982007 368.9868485575877 0  33.49364924138357 375.0000003247478 0  37.0201480006036 380.9182288389023 0  40.70838066758398 386.7370398875706 0  44.55554644477201 392.4520147396792 0  48.55872386086904 398.0588135419111 0  52.71487295981296 403.5531785693063 0  57.02083760525949 408.9309374584583 0  61.47334790862246 414.1880064170849 0  66.06902271205095 419.320393319588 0  70.80437211216579 424.3242006890749 0  75.67580013809859 429.195628692521 0  80.6796075127923 433.930978054209 0  85.81199439754931 438.5266528008431 0  91.06906334717917 442.9791630582355 0  96.44682221438322 447.2851276501571 0  101.9411872243843 451.441276702356 0  107.5479859945825 455.4444540643537 0  113.2629608446994 459.2916198108319 0  119.0817718768376 462.9798524393601 0  125.0000003647644 466.5063511567065 0  131.0131521012763 469.8684379967393 0  137.1166607840049 473.0635598376539 0  143.3058914748804 476.0892903390826 0  149.5761441732679 478.9433318113714 0  155.9226573130112 481.6235169255377 0  162.3406114779862 484.1278104026658 0  168.8251329570439 486.4543105138039 0  175.3712974805475 488.601250542119 0  181.9741340135204 490.5670001408953 0  188.6286284005059 492.3500665318597 0  195.3297273788229 493.9490956972913 0  202.0723421640089 495.3628733414168 0  208.8513525529672 496.5903258712308 0  215.6616106544547 497.6305211744985 0  222.4979448327038 498.4826693384772 0  229.3551637102845 499.1461232581612 0  236.2280599621369 499.6203791111485 0  243.1114144470173 499.9050767573145 0  155.2373389820306 474.8197567317462 0  25.36256300907667 153.9152755065208 0  432.3709625126712 412.6214396304305 0  6.013151705810699 246.637913163471 0  246.6379131630491 493.986848294322 0  338.6995838441862 22.68244767887072 0  477.3175523131281 338.6995838660569 0  493.9868482700757 246.6379131399102 0  246.6201155078769 6.218451882810491 0  417.6179310263282 72.7156044707053 0  102.2232990934413 445.0100869616822 0  63.66330858966404 92.20354579482142 0  391.3105220491464 50.73522820883105 0  72.79295043967942 418.0702734974704 0  448.290574428537 108.25674339002 0  402.4604651193511 440.7462829841712 0  97.55317348421397 59.11376320116034 0  136.7376477664901 33.58246472647134 0  363.3288394375288 465.6947312928271 0  44.0678766556007 381.0860953771871 0  469.6905266180034 142.3890690100806 0  22.68244791668644 338.6995843487432 0  338.699584349159 477.317552078365 0  173.389488083762 18.6681884918202 0  483.4809734778481 179.7121987795732 0  13.50237455842738 306.4709525540879 0  305.9825168523021 487.24416992
[...]
<PointData  Vectors="f_12"> 
<DataArray  type="Float64"  Name="f_12"  NumberOfComponents="3" format="ascii">0.0000000000000000e+00 3.2008514550241243e-02 4.6856377742917045e-02  0.0000000000000000e+00 1.7690015341173052e-02 1.3568498684328906e-01  0.0000000000000000e+00 1.9886471320205715e-01 8.2822471308753639e-03  0.0000000000000000e+00 6.8787375273358681e-02 8.9164854894806567e-01  0.0000000000000000e+00 2.0006386369794837e-01 8.2634502492965230e-03  0.0000000000000000e+00 2.0077564313792237e-01 8.2525277360557588e-03  0.0000000000000000e+00 2.0118648848023232e-01 8.2460954250961980e-03  0.0000000000000000e+00 2.0116579097653786e-01 8.2466587061105368e-03  0.0000000000000000e+00 2.0078048143696584e-01 8.2525884297394644e-03  0.0000000000000000e+00 2.0002301205139988e-01 8.2641044349136116e-03  0.0000000000000000e+00 1.9890325691695995e-01 8.2813393294438042e-03  0.0000000000000000e+00 1.9745087556504953e-01 8.3042475331060236e-03  0.0000000000000000e+00 1.9566324467664511e-01 8.3331121927513480e-03  0.0000000000000000e+00 1.9353372398373148e-01 8.3685185406130753e-03  0.0000000000000000e+00 1.9098603893816749e-01 8.4125345100759790e-03  0.0000000000000000e+00 1.8836860749809076e-01 8.4592002125508485e-03  0.0000000000000000e+00 1.8522447258841948e-01 8.5184010149333186e-03  0.0000000000000000e+00 1.8205088939447689e-01 8.5817751921996067e-03  0.0000000000000000e+00 1.7867135430526240e-01 8.6532332064465263e-03  0.0000000000000000e+00 1.7517223917743835e-01 8.7311944575584454e-03  0.0000000000000000e+00 1.7162263410039988e-01 8.8159295884671189e-03  0.0000000000000000e+00 1.6794297182959733e-01 8.9116300420147183e-03  0.0000000000000000e+00 1.6419107719642417e-01 9.0163050671410745e-03  0.0000000000000000e+00 1.6042090463549144e-01 9.1287965369895429e-03  0.0000000000000000e+00 1.5650274683034768e-01 9.2541592473350393e-03  0.0000000000000000e+00 1.5236069514974621e-01 9.3967376038876331e-03  0.0000000000000000e+00 1.4797547622380675e-01 9.5576813842918919e-03  0.0000000000000000e+00 1.4353482200825232e-01 9.7331535061846112e-03  0.0000000000000000e+00 1.3901556560628997e-01 9.9269711591381555e-03  0.0000000000000000e+00 1.3441298138572044e-01 1.0141260700761842e-02  0.0000000000000000e+00 1.2996872241602395e-01 1.0369603262565280e-02  0.0000000000000000e+00 1.2562257313945036e-01 1.0616224791441593e-02  0.0000000000000000e+00 1.2136604687446899e-01 1.0883101887856366e-02  0.0000000000000000e+00 1.1715278485876839e-01 1.1172124029470239e-02  0.0000000000000000e+00 1.1282551481409918e-01 1.1497802424074343e-02  0.0000000000000000e+00 1.0844754175300360e-01 1.1859553227322874e-02  0.0000000000000000e+00 1.0407963552743055e-01 1.2254110032977031e-02  0.0000000000000000e+00 9.9742005312204382e-02 1.2689024261678863e-02  0.0000000000000000e+00 9.5540961987171408e-02 1.3162629895575146e-02  0.0000000000000000e+00 9.1565027773525612e-02 1.3666053721837818e-02  0.0000000000000000e+00 8.7747968058981315e-02 1.4207942253580420e-02  0.0000000000000000e+00 8.3935066800509189e-02 1.4811853312670025e-02  0.0000000000000000e+00 8.0095929199103216e-02 1.5485481648305571e-02  0.0000000000000000e+00 7.6339804255900229e-02 1.6226586533784317e-02  0.0000000000000000e+00 7.2706213910573761e-02 1.7035786474854635e-02  0.0000000000000000e+00 6.9257433690749923e-02 1.7907892516942837e-02  0.0000000000000000e+00 6.5994305021837882e-02 1.8846969411313794e-02  0.0000000000000000e+00 6.2865395723925493e-02 1.9873803785225904e-02  0.0000000000000000e+00 5.9750265682793464e-02 2.1025548263434515e-02  0.0000000000000000e+00 5.6714896516952072e-02 2.2292571590661107e-02  0.0000000000000000e+00 5.3822059432005666e-02 2.3679348228458057e-02  0.0000000000000000e+00 5.1104803466150518e-02 2.5170009483369206e-02  0.0000000000000000e+00 4.8560710397549930e-02 2.6785993837393024e-02  0.0000000000000000e+00 4.6113696258274300e-02 2.8564852017992828e-02  0.0000000000000000e+00 4.3741779488401127e-02 3.0531731846111566e-02  0.0000000000000000e+00 4.1470880790337242e-02 3.2700022053790148e-02  0.0000000000000000e+00 3.9312777149736557e-02 3.5071917899808805e-02  0.0000000000000000e+00 3.7309064392223631e-02 3.7643253611667052e-02  0.0000000000000000e+00 3.5426462791349256e-02 4.0400796806012849e-02  0.0000000000000000e+00 3.3690056451769923e-02 4.3351267599676516e-02  0.0000000000000000e+00 3.0360569525416263e-02 5.0493316514466265e-02  0.0000000000000000e+00 2.8859968198984846e-02 5.4505426454479984e-02  0.0000000000000000e+00 2.7505323284104610e-02 5.8791779396272531e-02  0.0000000000000000e+00 2.6211564167544641e-02 6.3474891925614257e-02  0.0000000000000000e+00 2.5005128587862441e-02 6.8648053371880416e-02  0.0000000000000000e+00 2.3843078580155695e-02 7.4321899675739336e-02  0.0000000000000000e+00 2.2785843243009956e-02 8.0487108761754453e-02  0.0000000000000000e+00 2.1823299959250933e-02 8.7073315651237382e-02  0.0000000000000000e+00 2.0946212849762797e-02 9.4167965172737622e-02  0.0000000000000000e+00 2.0132836912888107e-02 1.0191695662993698e-01  0.0000000000000000e+00 1.9363798352703607e-02 1.1044621477662908e-01  0.0000000000000000e+00 1.8669688091142993e-02 1.1968176944673055e-01  0.0000000000000000e+00 1.8047390152650843e-02 1.2955569787228358e-01  0.0000000000000000e+00 1.7504743108598952e-02 1.4001895126221428e-01  0.0000000000000000e+00 1.7023438713460712e-02 1.5124303130334671e-01  0.0000000000000000e+00 1.6594983331089712e-02 1.6346142878326542e-01  0.0000000000000000e+00 1.6215881869592576e-02 1.7676708266246788e-01  0.0000000000000000e+00 1.5899057267906341e-02 1.9101446878610531e-01  0.0000000000000000e+00 1.5651537624402169e-02 2.0598666171314528e-01  0.0000000000000000e+00 1.5471173312491695e-02 2.2165662819320808e-01  0.0000000000000000e+00 1.5347747404071830e-02 2.3832197451099019e-01  0.0000000000000000e+00 1.5286497404605170e-02 2.5616864582615417e-01  0.0000000000000000e+00 1.5287517955722146e-02 2.7544102273218846e-01  0.0000000000000000e+00 1.5358137579126343e-02 2.9574811807939577e-01  0.0000000000000000e+00 1.5503597511173724e-02 3.1678610227674003e-01  0.0000000000000000e+00 1.5724534295001268e-02 3.3828277220686687e-01  0.0000000000000000e+00 1.6020991384211911e-02 3.6037625500112069e-01  0.0000000000000000e+00 1.6405116595301240e-02 3.8349203728890080e-01  0.0000000000000000e+00 1.6886496405606088e-02 4.0790982749407473e-01  0.0000000000000000e+00 1.7486224993438014e-02 4.3358752897477210e-01  0.0000000000000000e+00 1.8204756308858334e-02 4.5995269801209776e-01  0.0000000000000000e+00 1.9040921404712877e-02 4.8634861636026439e-01  0.0000000000000000e+00 1.9996265990820272e-02 5.1247242160114082e-01  0.0000000000000000e+00 2.1060352378036256e-02 5.3800998056736271e-01  0.0000000000000000e+00 2.2248851663854537e-02 5.6312992229271719e-01  0.0000000000000000e+00 2.3628609486751863e-02 5.8885566711315396e-01  0.0000000000000000e+00 2.5211979174399688e-02 6.1489657933801400e-01  0.0000000000000000e+00 2.6981849235109968e-02 6.4045404057679978e-01  0.0000000000000000e+00 2.8999167284479942e-02 6.6595521778624889e-01  0.0000000000000000e+00 3.1220914855186428e-02 6.9069669080074725e-01  0.0000000000000000e+00 3.3522969523488599e-02 7.1313239003884299e-01  0.0000000000000000e+00 3.5934780055127694e-02 7.3398796276438727e-01  0.0000000000000000e+00 3.8400823602394780e-02 7.5300579023720615e-01  0.0000000000000000e+00 4.0924221454030775e-02 7.7055632670719176e-01  0.0000000000000000e+00 4.3491747115860700e-02 7.8668040434940545e-01  0.0000000000000000e+00 4.6108970423050927e-02 8.0163938430514814e-01  0.0000000000000000e+00 4.8745803102970275e-02 8.1541312718767900e-01  0.0000000000000000e+00 5.1368764712598269e-02 8.2800280847233376e-01  0.0000000000000000e+00 5.3998179135709749e-02 8.3965115668056833e-01  0.0000000000000000e+00 5.6593901454417832e-02 8.5030063041721782e-01  0.0000000000000000e+00 5.9042082247216250e-02 8.5969935899523509e-01  0.0000000000000000e+00 6.1303235669052672e-02 8.6780493149783333e-01  0.0000000000000000e+00 6.3308768155994496e-02 8.7463608176806340e-01  0.0000000000000000e+00 6.5141817877251179e-02 8.8059422409723964e-01  0.0000000000000000e+00 6.6659099515258169e-02 8.8530954462572986e-01  0.0000000000000000e+00 6.7900190261605917e-02 8.8905832555387299e-01  0.0000000000000000e+00 6.9193105050541978e-02 8.9280665505204382e-01  0.0000000000000000e+00 7.0056446137148690e-02 8.9533484315775080e-01  0.0000000000000000e+00 6.9659967128410633e-02 8.9415023807041849e-01  0.0000000000000000e+00 6.9309148357238212e-02 8.9314576851667726e-01  0.0000000000000000e+00 6.8700286745843706e-02 8.9138217669893238e-01  0.0000000000000000e+00 6.7730614645840542e-02 8.8854103886646096e-01  0.0000000000000000e+00 6.6429305182385712e-02 8.8460001697561774e-01  0.0000000000000000e+00 6.4944611367219074e-02 8.7995620757426574e-01  0.0000000000000000e+00 6.3202592726019940e-02 8.7426388482380601e-01  0.0000000000000000e+00 6.1574449789392152e-02 8.6879395601340736e-01  0.0000000000000000e+00 5.9290516660465309e-02 8.6060939106559442e-01  0.0000000000000000e+00 5.7035174493721814e-02 8.5201388153279556e-01  0.0000000000000000e+00 5.4706298183941314e-02 8.4262765940117546e-01  0.0000000000000000e+00 5.2435085901377389e-02 8.3282714828232751e-01  0.0000000000000000e+00 5.0098210190331401e-02 8.2200924993895830e-01  0.0000000000000000e+00 4.7679696943762451e-02 8.0997038830243029e-01  0.0000000000000000e+00 4.5365186360286851e-02 7.9751356844971932e-01  0.0000000000000000e+00 4.3110431981691989e-02 7.8436809646862271e-01  0.0000000000000000e+00 4.0914685315198242e-02 7.7046775780020416e-01  0.0000000000000000e+00 3.8760186878677286e-02 7.5563769406095704e-01  0.0000000000000000e+00 3.6636866205712285e-02 7.3959419387711445e-01  0.0000000000000000e+00 3.4558280954847316e-02 7.2235338085804179e-01  0.0000000000000000e+00 3.2573459803086811e-02 7.0416414225269752e-01  0.0000000000000000e+00 3.0681896318334467e-02 6.8495325324197676e-01  0.0000000000000000e+00 2.8895347496020022e-02 6.6477908311998457e-01  0.0000000000000000e+00 2.7242725411257135e-02 6.4398318924976905e-01  0.0000000000000000e+00 2.5738048377067429e-02 6.2289222224875918e-01  0.0000000000000000e+00 2.4392110490154970e-02 6.0191409797113904e-01  0.0000000000000000e+00 2.3196274140538192e-02 5.8124434373661404e-01  0.0000000000000000e+00 2.2135761445444498e-02 5.6098293512751918e-01  0.0000000000000000e+00 2.1189607686267414e-02 5.4103191616535662e-01  0.0000000000000000e+00 2.0339677895634733e-02 5.2126532921464086e-01  0.0000000000000000e+00 1.9563642774188598e-02 5.0133274032010866e-01  0.0000000000000000e+00 1.8855866559985772e-02 4.8108766132082742e-01  0.0000000000000000e+00 1.8207154176300411e-02 4.6039061963414352e-01  0.0000000000000000e+00 1.7631637024385020e-02 4.3972584653531621e-01  0.0000000000000000e+00 1.7131810450989760e-02 4.1944815970508009e-01  0.0000000000000000e+00 1.6707696260772793e-02 3.9995418470543237e-01  0.0000000000000000e+00 1.6352934056762733e-02 3.8142974927396206e-01  0.0000000000000000e+00 1.6060543921289566e-02 3.6388994126326574e-01  0.0000000000000000e+00 1.5815768171635495e-02 3.4676066700515529e-01  0.0000000000000000e+00 1.5616655698618989e-02 3.3009145377898719e-01  0.0000000000000000e+00 1.5463799719066652e-02 3.1385245663791034e-01  0.0000000000000000e+00 1.5349386005265812e-02 2.9752862521492546e-01  0.0000000000000000e+00 1.5282857924805869e-02 2.8134883505417091e-01  0.0000000000000000e+00 1.5260654904593524e-02 2.6572924659102731e-01  0.0000000000000000e+00 1.5278469796415504e-02 2.5125486516484080e-01  0.0000000000000000e+00 1.5335748289601834e-02 2.3726686312952350e-01  0.0000000000000000e+00 1.5428604798994027e-02 2.2428223562968361e-01  0.0000000000000000e+00 1.5552121185189453e-02 2.1172585873625258e-01  0.0000000000000000e+00 1.5726545574198798e-02 1.9959939685920902e-01  0.0000000000000000e+00 1.5943270034193251e-02 1.8755466928077771e-01  0.0000000000000000e+00 1.6215861893951099e-02 1.7584030153602628e-01  0.0000000000000000e+00 1.6530047824542132e-02 1.6475674503098453e-01  0.0000000000000000e+00 1.6878614123702573e-02 1.5444520725616595e-01  0.0000000000000000e+00 1.7260799504280600e-02 1.4481852878274459e-01  0.0000000000000000e+00 1.8178672650642078e-02 1.2686910343329294e-01  0.0000000000000000e+00 1.8733454530622029e-02 1.1833817668453338e-01  0.0000000000000000e+00 1.9358951676065408e-02 1.1020796138546669e-01  0.0000000000000000e+00 2.0035960072494571e-02 1.0259766090657148e-01  0.0000000000000000e+00 2.0760724143423417e-02 9.5563360681669471e-02  0.0000000000000000e+00 2.1540216781392080e-02 8.9003861924037878e-02  0.0000000000000000e+00 2.2399552210933267e-02 8.2791705796608925e-02  0.0000000000000000e+00 2.3358915469110640e-02 7.6851814977458674e-02  0.0000000000000000e+00 2.4421377342779819e-02 7.1230358527401380e-02  0.0000000000000000e+00 2.5565853544385977e-02 6.6006704077675893e-02  0.0000000000000000e+00 2.6782043898749698e-02 6.1221745490943329e-02  0.0000000000000000e+00 2.8076439613053152e-02 5.6797446421417791e-02  0.0000000000000000e+00 2.9492319910623285e-02 5.2665218759596573e-02  0.0000000000000000e+00 3.1057924940199384e-02 4.8766855639042622e-02  0.0000000000000000e+00 3.2751075958630152e-02 4.5146715698971746e-02  0.0000000000000000e+00 3.4558024790803152e-02 4.1831211280651814e-02  0.0000000000000000e+00 3.6473874924769528e-02 3.8798110972223396e-02  0.0000000000000000e+00 3.8518618916908762e-02 3.6003142643385326e-02  0.0000000000000000e+00 4.0772888215685872e-02 3.3411396240331834e-02  0.0000000000000000e+00 4.3196271632159861e-02 3.1003817957060462e-02  0.0000000000000000e+00 4.5779983316275204e-02 2.8814147925580545e-02  0.0000000000000000e+00 4.8485683491603315e-02 2.6829897452854072e-02  0.0000000000000000e+00 5.1363117811662452e-02 2.5015428782891806e-02  0.0000000000000000e+00 5.4485062713114575e-02 2.3343026880478106e-02  0.0000000000000000e+00 5.7839774509110917e-02 2.1805081072416181e-02  0.0000000000000000e+00 6.1370408746189133e-02 2.0411441520923567e-02  0.0000000000000000e+00 6.5044327988519487e-02 1.9152609442371279e-02  0.0000000000000000e+00 6.8874152397701269e-02 1.8018507394280153e-02  0.0000000000000000e+00 7.2984084685595252e-02 1.6980081374892229e-02  0.0000000000000000e+00 7.7343157902758711e-02 1.6029394184272180e-02  0.0000000000000000e+00 8.1887397887788899e-02 1.5170729903140608e-02  0.0000000000000000e+00 8.6539198382086582e-02 1.4401440578693579e-02  0.0000000000000000e+00 9.1298626998331231e-02 1.3711781777122614e-02  0.0000000000000000e+00 9.6269369217119649e-02 1.3087076069370833e-02  0.0000000000000000e+00 1.0151435473078461e-01 1.2516638988264422e-02  0.0000000000000000e+00 1.0690089253488524e-01 1.2003033272113264e-02  0.0000000000000000e+00 1.1232976051327337e-01 1.1545615708527711e-02  0.0000000000000000e+00 1.1778531960168877e-01 1.1134984202548510e-02  0.0000000000000000e+00 1.2320228197323380e-01 1.0771946965362839e-02  0.0000000000000000e+00 1.2868701866234997e-01 1.0448776052788001e-02  0.0000000000000000e+00 1.3432687983702910e-01 1.0154967431526331e-02  0.0000000000000000e+00 1.4003503611007473e-01 9.8896054154578687e-03  0.0000000000000000e+00 1.4573028386290701e-01 9.6534779874380399e-03  0.0000000000000000e+00 1.5116028231623113e-01 9.4454633717092930e-03  0.0000000000000000e+00 1.5637507907017650e-01 9.2647228314239275e-03  0.0000000000000000e+00 1.6129340514421184e-01 9.1080017538285041e-03  0.0000000000000000e+00 1.6596137631498642e-01 8.9700077288982251e-03  0.0000000000000000e+00 1.7046000093519181e-01 8.8476737951102020e-03  0.0000000000000000e+00 1.7477460684773335e-01 8.7430666826443012e-03  0.0000000000000000e+00 1.7892698476012298e-01 8.6500474546808374e-03  0.0000000000000000e+00 1.8292549794868437e-01 8.5663517359106673e-03  0.0000000000000000e+00 1.8658555038357713e-01 8.4947913429985287e-03  0.0000000000000000e+00 1.8985727065062810e-01 8.4350546316652505e-03  0.0000000000000000e+00 1.9274116368752800e-01 8.3839921005427667e-03  0.0000000000000000e+00 1.9519993345184314e-01 8.3420712985588126e-03  0.0000000000000000e+00 1.9719592631599048e-01 8.3091264354031320e-03  0.0000000000000000e+00 1.4236749417281802e-01 9.7915757434777866e-03  0.0000000000000000e+00 1.5544648950896810e-02 3.2255604976362356e-01  0.0000000000000000e+00 1.1422540336598851e-01 1.1390513724707644e-02  0.0000000000000000e+00 1.7507239556302640e-02 1.3951341105232387e-01  0.0000000000000000e+00 1.9703651664780666e-01 8.3128377831816411e-03  0.0000000000000000e+00 3.8899637759169388e-02 7.5655450789841172e-01  0.0000000000000000e+00 6.4178995710719375e-02 1.9432243352669850e-02  0.0000000000000000e+00 3.1111249731239625e-02 4.8708766036820790e-02  0.0000000000000000e+00 6.7151504176514845e-02 8.8677785030433720e-01  0.0000000000000000e+00 1.7129580398313391e-02 4.1866463450341618e-01  0.0000000000000000e+00 9.3343708861411412e-02 1.3446343443950287e-02  0.0000000000000000e+00 2.0587378819071675e-02 5.2707705474897359e-01  0.0000000000000000e+00 2.1620928081072098e-02 5.5011897697968826e-01  0.0000000000000000e+00 6.6931135529948962e-02 1.8575999078606138e-02  0.0000000000000000e+00 1.5281675809153661e-02 2.6516129517512033e-01  0.0000000000000000e+00 1.4079139071559271e-01 9.8504150247501181e-03  0.0000000000000000e+00 2.9404457882131897e-02 6.7066919680861647e-01  0.0000000000000000e+00 4.3372562350503040e-02 7.8590515568424235e-01  0.0000000000000000e+00 1.6876725410454130e-01 8.8910183666679066e-03  0.0000000000000000e+00 4.4616418206718141e-02 2.9770065248149215e-02  0.0000000000000000e+00 1.6393912524622582e-02 1.7020680685359574e-01  0.0000000000000000e+00 3.0275498132070557e-02 5.0641579737952115e-02  0.0000000000000000e+00 1.8278693085180606e-01 8.5680695034756876e-03  0.0000000000000000e+00 5.6393161364121203e-02 8.4955510002548285e-01  0.0000000000000000e+00 1.9653350964670410e-02 1.0709846292874324e-01  0.0000000000000000e+00 2.3935738819914471e-02 7.3728850159249043e-02  0.0000000000000000e+00 1.9564524349732249e-01 8.3348437907007442e-03  0.0000000000000000e+00 1.7190684632489628e-01 8.8134003662020347e-03  0.0000000000000000e+00 1.5391702594770516e-02 2.2933629844958084e-01  0.0000000000000000e+00 5.3946598019721605e-02 8.3942640109774724e-01  0.0000000000000000e+00 4.7185078391352657e-02 2.7760154574309030e-02  0.0000000000000000e+00 8.9989816934346323e-02 1.3885383945280147e-02  0.0000000000000000e+00 6.5405194323523652e-02 8.8139643647087174e-01  0.0000000000000000e+00 2.3209216168554661e-02 7.7909343612835483e-02  0.0000000000000000e+00 2.0434336579775430e-02 9.8651611909654491e-02  0.0000000000000000e+00 1.9998517673925903e-01 8.2660237956539619e-03  0.0000000000000000e+00 2.7586930224897107e-02 6.4829806274952462e-01  0.0000000000000000e+00 1.6854157427139808e-02 4.0672643774134848e-01  0.0000000000000000e+00 1.8738128883556887e-01 8.4814772622843447e-03  0.0000000000000000e+00 1.1991479976330795e-01 1.0988196315307378e-02  0.0000000000000000e+00 1.6137188955825076e-02 1.7918256995853096e-01  0.0000000000000000e+00 6.2383445138689257e-02 8.7152506064096535e-01  0.0000000000000000e+00 3.8424338160827541e-02 3.6175445565741489e-02  0.0000000000000000e+00 1.5338199973583355e-01 9.3623883888488742e-03  0.0000000000000000e+00 5.5045430997766369e-02 2.3072894386933614e-02  0.0000000000000000e+00 6.7893850648156423e-02 8.8897555510270987e-01  0.0000000000000000e+00 4.6422938309344845e-02 8.0329726309311678e-01  0.0000000000000000e+00 2.6792550455756153e-02 6.1284522878776886e-02  0.0000000000000000e+00 1.5858827528608933e-02 3.4870861318127111e-01  0.0000000000000000e+00 1.5826798583670654e-01 9.2043303335140603e-03  0.0000000000000000e+00 1.0127250342398465e-01 1.2531630174745293e-02  0.0000000000000000e+00 5.6231720100076377e-02 2.2514852096106562e-02  0.0000000000000000e+00 3.4916625944646756e-02 7.2536320114591291e-01  0.0000000000000000e+00 3.7609824472638331e-02 3.7196785072678630e-02  0.0000000000000000e+00 1.5268631933934330e-02 2.7160312528641384e-01  0.0000000000000000e+00 7.7887729114714671e-02 1.5912735255584603e-02  0.0000000000