<?xml version="1.0"?>
<VTKFile type="UnstructuredGrid"  version="0.1"  >
<UnstructuredGrid>
<Piece  NumberOfPoints="4940" NumberOfCells="9650">
<Points>
<DataArray  type="Float64"  NumberOfComponents="3"  format="ascii">500 250 0  0 250 0  250 500 0  250 0 0  256.8885856082646 499.9050767557906 0  263.7719401218049 499.6203791065173 0  270.6448364229772 499.1461232471188 0  277.5020553257866 498.4826693209355 0  284.3383895508592 497.6305211460281 0  291.1486476865662 496.5903258312597 0  297.9276581259182 495.3628732847843 0  304.6702729675493 493.9490956196674 0  311.3713719748657 492.3500664368026 0  318.0258664141369 490.5670000199653 0  324.6287029687753 488.6012504015818 0  331.1748675330201 486.4543103455647 0  337.6593890460416 484.1278102064655 0  344.0773432429536 481.6235166997244 0  350.4238564271474 478.9433315480048 0  356.694109139292 476.0892900492477 0  362.88333985546 473.0635595140469 0  368.9868485575419 469.8684376402048 0  375.0000003153078 466.5063507640667 0  380.9182288257928 462.9798520074548 0  386.7370398729688 459.2916193419558 0  392.4520147244077 455.444453565817 0  398.0588135356345 451.4412761437442 0  403.5531785622926 447.285127045646 0  408.9309374414144 442.9791624087773 0  414.1880064015299 438.5266521049243 0  419.3203932989752 433.9309773069245 0  424.324200661095 429.1956279150535 0  429.1956286596235 424.3241998957182 0  433.9309780058756 419.3203925397119 0  438.5266527445345 414.1880056671062 0  442.9791630130591 408.9309367076756 0  447.2851276060475 403.5531778422888 0  451.4412766621026 398.0588128303826 0  455.4444540361634 392.4520140460735 0  459.2916197786263 386.7370392045948 0  462.9798524073514 380.9182281752347 0  466.5063511234856 374.9999996927758 0  469.8684379657123 368.9868479560565 0  473.0635598144817 362.8833392617846 0  476.0892903190255 356.6941085676214 0  478.9433317963513 350.4238558609745 0  481.6235169154735 344.0773427117675 0  484.12781039012 337.6593885555221 0  486.4543105028062 331.1748670749914 0  488.601250531677 324.6287025528375 0  490.5670001317469 318.0258660188321 0  492.3500665291326 311.3713716102628 0  493.949095695951 304.6702726271575 0  495.3628733416623 297.9276578347343 0  496.5903258712341 291.1486474470129 0  497.6305211749058 284.3383893426084 0  498.4826693388848 277.502055163614 0  499.1461232580606 270.6448362909296 0  499.6203791109319 263.7719400417897 0  499.9050767571306 256.8885855596534 0  499.9050767559877 243.1114143988867 0  499.6203791069493 236.2280598860241 0  499.1461232485393 229.3551635941651 0  498.4826693235677 222.4979446979962 0  497.6305211491849 215.6616104719064 0  496.5903258357701 208.8513523404629 0  495.3628732906988 202.0723419043604 0  493.9490956264813 195.3297270628552 0  492.3500664487791 188.6286280724281 0  490.5670000344809 181.9741336371959 0  488.6012504175981 175.3712970824318 0  486.4543103623226 168.8251325157939 0  484.1278102222298 162.3406109960628 0  481.6235167152198 155.9226567951971 0  478.9433315621651 149.5761436051346 0  476.0892900516498 143.3058908657982 0  473.063559513628 137.1166601437124 0  469.8684376406648 131.0131514433083 0  466.5063507675389 124.9999996907064 0  462.9798520124137 119.0817711822745 0  459.2916193464549 113.2629601339176 0  455.4444535642773 107.5479852733717 0  451.4412761528674 101.9411864767781 0  447.2851270583545 96.44682145403524 0  442.9791624165781 91.06906256805769 0  438.5266521117469 85.81199360630404 0  433.9309773156125 80.67960671046254 0  429.1956279150353 75.67579933888632 0  424.3241998888952 70.80437133373906 0  419.3203925223282 66.06902197812161 0  414.1880056411937 61.47334723289828 0  408.9309366751728 57.0208369601728 0  403.5531778009394 52.71487236176898 0  398.058812796452 48.55872331295853 0  392.4520140187753 44.55554594490843 0  386.7370391799677 40.70838020528396 0  380.9182281475119 37.02014757560744 0  374.9999996718656 33.49364886444181 0  368.9868479340393 30.13156202237255 0  362.8833392380029 26.93644017348339 0  356.6941085456942 23.91070967062674 0  350.4238558420009 21.0566681953261 0  344.0773426899492 18.37648307566465 0  337.6593885328982 15.87218960140942 0  331.1748670549786 13.54568949032341 0  324.6287025315056 11.39874946165088 0  318.0258660010876 9.432999863235466 0  311.3713716017894 7.649933468721599 0  304.6702726190621 6.050904302234756 0  297.9276578269805 4.637126656823085 0  291.148647441857 3.409674127905504 0  284.3383893425031 2.369478825079682 0  277.502055159398 1.517330660648639 0  270.6448362875833 0.853876741662134 0  263.7719400401456 0.3796208889774277 0  256.8885855592052 0.09492324285704967 0  243.1114143979462 0.09492324403817065 0  236.2280598850882 0.3796208931023841 0  229.3551635938215 0.8538767514891958 0  222.4979446968584 1.517330676558146 0  215.6616104703111 2.369478851036291 0  208.8513523382973 3.409674164591252 0  202.0723419066374 4.637126708856528 0  195.3297270659513 6.050904372824903 0  188.628628074828 7.649933550613184 0  181.9741336377093 9.432999965373938 0  175.3712970793675 11.39874958336037 0  168.8251325057572 13.54568964112298 0  162.340610986655 15.87218978129263 0  155.9226567874317 18.37648328793418 0  149.576143602509 21.05666843898663 0  143.3058908718157 23.91070994551046 0  137.1166601505524 26.93644048291054 0  131.0131514451933 30.13156235831508 0  124.9999996848412 33.49364923584736 0  119.0817711715717 37.0201479941652 0  113.2629601211624 40.70838066187849 0  107.5479852622251 44.55554644345162 0  101.9411864693332 48.55872385260452 0  96.44682143286516 52.71487295812284 0  91.06906254351222 57.02083760363669 0  85.81199358272519 61.4733479087879 0  80.67960667988106 66.06902271253972 0  75.67579930062769 70.80437212218331 0  70.80437129287643 75.67580015310926 0  66.06902193673014 80.67960752263491 0  61.47334718684866 85.81199441168215 0  57.02083692524275 91.0690633672404 0  52.71487232786438 96.44682224262129 0  48.55872328070024 101.941187247437 0  44.55554591578033 107.5479860232332 0  40.7083801742321 113.2629608675606 0  37.02014754791168 119.0817718975441 0  33.49364883372994 125.000000381329 0  30.13156199866361 131.0131521097709 0  26.9364401549829 137.1166607985551 0  23.91070965524918 143.3058914868915 0  21.05666818346614 149.576144185037 0  18.37648306853811 155.9226573275967 0  15.8721895918909 162.3406114925245 0  13.54568948170046 168.8251329701392 0  11.39874945301878 175.3712974960928 0  9.432999857087736 181.9741340206533 0  7.649933466342702 188.6286284076045 0  6.050904301250966 195.3297273853278 0  4.637126656808988 202.0723421730917 0  3.409674127767772 208.8513525589684 0  2.369478824521138 215.6616106615248 0  1.517330660909465 222.4979448382452 0  0.8538767414496533 229.355163714981 0  0.3796208887135322 236.2280599646376 0  0.09492324266324204 243.1114144478261 0  0.0949232442452228 256.8885856095658 0  0.3796208935834784 263.7719401236316 0  0.8538767530323526 270.6448364248016 0  1.517330679476544 277.5020553295092 0  2.369478854618649 284.3383895555228 0  3.409674170191892 291.1486476952655 0  4.6371267162381 297.9276581311522 0  6.050904381420935 304.6702729724059 0  7.649933562385399 311.3713719716595 0  9.43299997979841 318.0258664133013 0  11.3987495994252 324.6287029719946 0  13.54568965885832 331.174867545904 0  15.87218979367188 337.6593890464085 0  18.37648329843151 344.0773432384132 0  21.05666844777872 350.423856417535 0  23.91070995156048 356.6941091410045 0  26.93644048988043 362.8833398632205 0  30.13156235982007 368.9868485575877 0  33.49364924138357 375.0000003247478 0  37.0201480006036 380.9182288389023 0  40.70838066758398 386.7370398875706 0  44.55554644477201 392.4520147396792 0  48.55872386086904 398.0588135419111 0  52.71487295981296 403.5531785693063 0  57.02083760525949 408.9309374584583 0  61.47334790862246 414.1880064170849 0  66.06902271205095 419.320393319588 0  70.80437211216579 424.3242006890749 0  75.67580013809859 429.195628692521 0  80.6796075127923 433.930978054209 0  85.81199439754931 438.5266528008431 0  91.06906334717917 442.9791630582355 0  96.44682221438322 447.2851276501571 0  101.9411872243843 451.441276702356 0  107.5479859945825 455.4444540643537 0  113.2629608446994 459.2916198108319 0  119.0817718768376 462.9798524393601 0  125.0000003647644 466.5063511567065 0  131.0131521012763 469.8684379967393 0  137.1166607840049 473.0635598376539 0  143.3058914748804 476.0892903390826 0  149.5761441732679 478.9433318113714 0  155.9226573130112 481.6235169255377 0  162.3406114779862 484.1278104026658 0  168.8251329570439 486.4543105138039 0  175.3712974805475 488.601250542119 0  181.9741340135204 490.5670001408953 0  188.6286284005059 492.3500665318597 0  195.3297273788229 493.9490956972913 0  202.0723421640089 495.3628733414168 0  208.8513525529672 496.5903258712308 0  215.6616106544547 497.6305211744985 0  222.4979448327038 498.4826693384772 0  229.3551637102845 499.1461232581612 0  236.2280599621369 499.6203791111485 0  243.1114144470173 499.9050767573145 0  155.2373389820306 474.8197567317462 0  25.36256300907667 153.9152755065208 0  432.3709625126712 412.6214396304305 0  6.013151705810699 246.637913163471 0  246.6379131630491 493.986848294322 0  338.6995838441862 22.68244767887072 0  477.3175523131281 338.6995838660569 0  493.9868482700757 246.6379131399102 0  246.6201155078769 6.218451882810491 0  417.6179310263282 72.7156044707053 0  102.2232990934413 445.0100869616822 0  63.66330858966404 92.20354579482142 0  391.3105220491464 50.73522820883105 0  72.79295043967942 418.0702734974704 0  448.290574428537 108.25674339002 0  402.4604651193511 440.7462829841712 0  97.55317348421397 59.11376320116034 0  136.7376477664901 33.58246472647134 0  363.3288394375288 465.6947312928271 0  44.0678766556007 381.0860953771871 0  469.6905266180034 142.3890690100806 0  22.68244791668644 338.6995843487432 0  338.699584349159 477.317552078365 0  173.389488083762 18.6681884918202 0  483.4809734778481 179.7121987795732 0  13.50237455842738 306.4709525540879 0  305.9825168523021 487.24416992
[...]
<PointData  Vectors="f_12"> 
<DataArray  type="Float64"  Name="f_12"  NumberOfComponents="3" format="ascii">0.0000000000000000e+00 9.1650382237762107e-01 1.5366485069936453e-01  0.0000000000000000e+00 9.4649273756549079e-01 7.9724407797250499e-02  0.0000000000000000e+00 6.0630082387156314e-01 6.6960894474147870e-01  0.0000000000000000e+00 8.8244357172526322e-01 2.3518436006470345e-02  0.0000000000000000e+00 6.0426237531861737e-01 6.7242166675962878e-01  0.0000000000000000e+00 6.0303646738902805e-01 6.7410827886259850e-01  0.0000000000000000e+00 6.0234298614996884e-01 6.7506126245857423e-01  0.0000000000000000e+00 6.0237265327149170e-01 6.7502095714590538e-01  0.0000000000000000e+00 6.0302379900259051e-01 6.7412585054810381e-01  0.0000000000000000e+00 6.0430773006647187e-01 6.7235877835451319e-01  0.0000000000000000e+00 6.0621266032929166e-01 6.6973097702549811e-01  0.0000000000000000e+00 6.0869876019088820e-01 6.6629146298296171e-01  0.0000000000000000e+00 6.1177034383171347e-01 6.6202627160594152e-01  0.0000000000000000e+00 6.1543972557154358e-01 6.5690715516200526e-01  0.0000000000000000e+00 6.1981730020854264e-01 6.5076755499459593e-01  0.0000000000000000e+00 6.2438096498256412e-01 6.4433119173667786e-01  0.0000000000000000e+00 6.2979510158457019e-01 6.3664315518487447e-01  0.0000000000000000e+00 6.3530867054300477e-01 6.2875896641321971e-01  0.0000000000000000e+00 6.4116665468772993e-01 6.2032273014061523e-01  0.0000000000000000e+00 6.4722122183997755e-01 6.1153749640263055e-01  0.0000000000000000e+00 6.5335366971247055e-01 6.0257181079893463e-01  0.0000000000000000e+00 6.5968384915118994e-01 5.9324553173769989e-01  0.0000000000000000e+00 6.6613176078508429e-01 5.8367490960807178e-01  0.0000000000000000e+00 6.7264031472781038e-01 5.7393836054116365e-01  0.0000000000000000e+00 6.7942691069114081e-01 5.6370739801034064e-01  0.0000000000000000e+00 6.8664328573030520e-01 5.5273969424099767e-01  0.0000000000000000e+00 6.9433606190568142e-01 5.4094949169235707e-01  0.0000000000000000e+00 7.0222873809451469e-01 5.2874755672514495e-01  0.0000000000000000e+00 7.1033176676103604e-01 5.1610932656909192e-01  0.0000000000000000e+00 7.1860609523486252e-01 5.0308769732726788e-01  0.0000000000000000e+00 7.2663228879440411e-01 4.9034618099304705e-01  0.0000000000000000e+00 7.3446270329159258e-01 4.7780731006360277e-01  0.0000000000000000e+00 7.4211783551226829e-01 4.6545066608134311e-01  0.0000000000000000e+00 7.4970269395406874e-01 4.5310844133472500e-01  0.0000000000000000e+00 7.5751685765002164e-01 4.4029061214774606e-01  0.0000000000000000e+00 7.6550884196588931e-01 4.2707758413447516e-01  0.0000000000000000e+00 7.7358780576618047e-01 4.1361107372844219e-01  0.0000000000000000e+00 7.8168837161094229e-01 3.9999700722056608e-01  0.0000000000000000e+00 7.8957823508497882e-01 3.8662926337035919e-01  0.0000000000000000e+00 7.9706022469821847e-01 3.7385277237945985e-01  0.0000000000000000e+00 8.0424488997583021e-01 3.6149123520519350e-01  0.0000000000000000e+00 8.1143644815292404e-01 3.4902731425189837e-01  0.0000000000000000e+00 8.1872886159852520e-01 3.3629622864665393e-01  0.0000000000000000e+00 8.2597076396524172e-01 3.2355958882058078e-01  0.0000000000000000e+00 8.3306193834638964e-01 3.1099376353242192e-01  0.0000000000000000e+00 8.3984734453147492e-01 2.9887993328493045e-01  0.0000000000000000e+00 8.4627085934421920e-01 2.8732630034531575e-01  0.0000000000000000e+00 8.5244310180779992e-01 2.7614455063926008e-01  0.0000000000000000e+00 8.5861837510236994e-01 2.6487605334774161e-01  0.0000000000000000e+00 8.6471596607975010e-01 2.5366996959006166e-01  0.0000000000000000e+00 8.7062161595601806e-01 2.4273246276276739e-01  0.0000000000000000e+00 8.7620917404028464e-01 2.3230159610593665e-01  0.0000000000000000e+00 8.8146218506914786e-01 2.2241340484653452e-01  0.0000000000000000e+00 8.8650864742964497e-01 2.1283400645871584e-01  0.0000000000000000e+00 8.9142628321620754e-01 2.0341987240973083e-01  0.0000000000000000e+00 8.9620523602602131e-01 1.9418821772629663e-01  0.0000000000000000e+00 9.0079872359051583e-01 1.8522684852368615e-01  0.0000000000000000e+00 9.0511350858196116e-01 1.7671673326912613e-01  0.0000000000000000e+00 9.0913598018659836e-01 1.6868886837371955e-01  0.0000000000000000e+00 9.1284037436624610e-01 1.6120004588512574e-01  0.0000000000000000e+00 9.2004221345557391e-01 1.4631641907800949e-01  0.0000000000000000e+00 9.2333100780985100e-01 1.3935066150029249e-01  0.0000000000000000e+00 9.2629321610038551e-01 1.3293272940260803e-01  0.0000000000000000e+00 9.2907588330235247e-01 1.2676851593371102e-01  0.0000000000000000e+00 9.3168327177197519e-01 1.2083861338688497e-01  0.0000000000000000e+00 9.3416527164643370e-01 1.1503951790602179e-01  0.0000000000000000e+00 9.3643970638530227e-01 1.0953022277194026e-01  0.0000000000000000e+00 9.3846943628441026e-01 1.0439568687470842e-01  0.0000000000000000e+00 9.4027634636169488e-01 9.9587078042098820e-02  0.0000000000000000e+00 9.4190344043014462e-01 9.4998860857489931e-02  0.0000000000000000e+00 9.4338959018057988e-01 9.0528960705067954e-02  0.0000000000000000e+00 9.4469906461161979e-01 8.6254174062205674e-02  0.0000000000000000e+00 9.4580794674643509e-01 8.2230106689804933e-02  0.0000000000000000e+00 9.4669550855926743e-01 7.8514353290807748e-02  0.0000000000000000e+00 9.4739026125768810e-01 7.5029854671141386e-02  0.0000000000000000e+00 9.4791661517133408e-01 7.1687059257274977e-02  0.0000000000000000e+00 9.4828245552173929e-01 6.8442244992296550e-02  0.0000000000000000e+00 9.4846629511722014e-01 6.5351269008054172e-02  0.0000000000000000e+00 9.4845552557393054e-01 6.2479017524180953e-02  0.0000000000000000e+00 9.4825742141025338e-01 5.9831117764010434e-02  0.0000000000000000e+00 9.4788302531982460e-01 5.7343532964666238e-02  0.0000000000000000e+00 9.4733256571945801e-01 5.4977282172786766e-02  0.0000000000000000e+00 9.4660332593512253e-01 5.2672305919170825e-02  0.0000000000000000e+00 9.4569650885730427e-01 5.0479790247743517e-02  0.0000000000000000e+00 9.4461918885162410e-01 4.8437827661533213e-02  0.0000000000000000e+00 9.4339290133917597e-01 4.6571018743299081e-02  0.0000000000000000e+00 9.4202730506252397e-01 4.4854258396314906e-02  0.0000000000000000e+00 9.4051088352656642e-01 4.3232536709039010e-02  0.0000000000000000e+00 9.3882719770879253e-01 4.1663711179771946e-02  0.0000000000000000e+00 9.3696153299467244e-01 4.0142987267611584e-02  0.0000000000000000e+00 9.3493950408736382e-01 3.8699600685535490e-02  0.0000000000000000e+00 9.3280676567072662e-01 3.7365492517567898e-02  0.0000000000000000e+00 9.3059719690732168e-01 3.6150445114162794e-02  0.0000000000000000e+00 9.2835656602296424e-01 3.5053261581456746e-02  0.0000000000000000e+00 9.2608333906253726e-01 3.4049784433843058e-02  0.0000000000000000e+00 9.2368784743191046e-01 3.3079809746368066e-02  0.0000000000000000e+00 9.2117641528481364e-01 3.2142733825603440e-02  0.0000000000000000e+00 9.1859863656544682e-01 3.1259794055188049e-02  0.0000000000000000e+00 9.1589849733194373e-01 3.0404612751668267e-02  0.0000000000000000e+00 9.1314462118966211e-01 2.9597276816980014e-02  0.0000000000000000e+00 9.1050136740643395e-01 2.8887196074520265e-02  0.0000000000000000e+00 9.0791930739387317e-01 2.8246477187420821e-02  0.0000000000000000e+00 9.0545412424893923e-01 2.7674642066120261e-02  0.0000000000000000e+00 9.0308594787988383e-01 2.7156367391102321e-02  0.0000000000000000e+00 9.0081858772911227e-01 2.6685635388312489e-02  0.0000000000000000e+00 8.9862771254426643e-01 2.6250810580852872e-02  0.0000000000000000e+00 8.9652191797476033e-01 2.5849668456918076e-02  0.0000000000000000e+00 8.9450987015372252e-01 2.5480437751236169e-02  0.0000000000000000e+00 8.9256271682327615e-01 2.5134699506954798e-02  0.0000000000000000e+00 8.9069862094405350e-01 2.4813361378647494e-02  0.0000000000000000e+00 8.8898012744415367e-01 2.4526053847208490e-02  0.0000000000000000e+00 8.8742676966081802e-01 2.4274916284002211e-02  0.0000000000000000e+00 8.8606497315904897e-01 2.4062175476196122e-02  0.0000000000000000e+00 8.8483884815426084e-01 2.3874281749829852e-02  0.0000000000000000e+00 8.8383580495513681e-01 2.3723290409896097e-02  0.0000000000000000e+00 8.8302214292641035e-01 2.3601924698075653e-02  0.0000000000000000e+00 8.8217356418002790e-01 2.3482399674159049e-02  0.0000000000000000e+00 8.8163164905890701e-01 2.3395723055596767e-02  0.0000000000000000e+00 8.8187540219976057e-01 2.3437048095516656e-02  0.0000000000000000e+00 8.8210009670891154e-01 2.3469547931862018e-02  0.0000000000000000e+00 8.8249449309701544e-01 2.3526217971923852e-02  0.0000000000000000e+00 8.8312151691873919e-01 2.3618814912306121e-02  0.0000000000000000e+00 8.8396895348088422e-01 2.3746071216935564e-02  0.0000000000000000e+00 8.8494864497561587e-01 2.3893845351446171e-02  0.0000000000000000e+00 8.8611170514320070e-01 2.4073172257441912e-02  0.0000000000000000e+00 8.8721903872960761e-01 2.4241741279576141e-02  0.0000000000000000e+00 8.8877804231860746e-01 2.4495622386524019e-02  0.0000000000000000e+00 8.9035370587388007e-01 2.4757935604972539e-02  0.0000000000000000e+00 8.9201364475469647e-01 2.5040920871334128e-02  0.0000000000000000e+00 8.9367998947788851e-01 2.5330153896665542e-02  0.0000000000000000e+00 8.9544218156538269e-01 2.5646920319032929e-02  0.0000000000000000e+00 8.9732207385521678e-01 2.5998637871880146e-02  0.0000000000000000e+00 8.9919446178684537e-01 2.6359332249199837e-02  0.0000000000000000e+00 9.0109884397890261e-01 2.6738098512540099e-02  0.0000000000000000e+00 9.0304183948502903e-01 2.7140075300615737e-02  0.0000000000000000e+00 9.0504385275443933e-01 2.7573870934462095e-02  0.0000000000000000e+00 9.0713053450151748e-01 2.8051108404670039e-02  0.0000000000000000e+00 9.0929308437430434e-01 2.8573390804598271e-02  0.0000000000000000e+00 9.1148848048057640e-01 2.9135545525734153e-02  0.0000000000000000e+00 9.1371391111373845e-01 2.9743636696049246e-02  0.0000000000000000e+00 9.1595285791286374e-01 3.0398326228492617e-02  0.0000000000000000e+00 9.1816324552736572e-01 3.1090472771031160e-02  0.0000000000000000e+00 9.2031355588709207e-01 3.1811127598598887e-02  0.0000000000000000e+00 9.2237291515948272e-01 3.2548596431099336e-02  0.0000000000000000e+00 9.2433642411871830e-01 3.3299048719493379e-02  0.0000000000000000e+00 9.2620912952484491e-01 3.4063495111631807e-02  0.0000000000000000e+00 9.2801133767324184e-01 3.4851595588223559e-02  0.0000000000000000e+00 9.2976017179803205e-01 3.5674606239319145e-02  0.0000000000000000e+00 9.3148190948521770e-01 3.6556702627678357e-02  0.0000000000000000e+00 9.3317908741143829e-01 3.7515014773737879e-02  0.0000000000000000e+00 9.3485410597335705e-01 3.8561191664809633e-02  0.0000000000000000e+00 9.3646040301386113e-01 3.9675560515787404e-02  0.0000000000000000e+00 9.3797038515341202e-01 4.0838736261201658e-02  0.0000000000000000e+00 9.3936253575583661e-01 4.2025198539530816e-02  0.0000000000000000e+00 9.4063285607708069e-01 4.3224866580020831e-02  0.0000000000000000e+00 9.4178993229727215e-01 4.4439705466629877e-02  0.0000000000000000e+00 9.4287297010635507e-01 4.5722364980577461e-02  0.0000000000000000e+00 9.4387729495939254e-01 4.7077281293257493e-02  0.0000000000000000e+00 9.4479556859899794e-01 4.8518466006378234e-02  0.0000000000000000e+00 9.4564379968159717e-01 5.0098580555460452e-02  0.0000000000000000e+00 9.4639738979840327e-01 5.1806349364521734e-02  0.0000000000000000e+00 9.4703816589644108e-01 5.3595587715486170e-02  0.0000000000000000e+00 9.4755747186463868e-01 5.5383031999351913e-02  0.0000000000000000e+00 9.4797545174922859e-01 5.7265371462938842e-02  0.0000000000000000e+00 9.4828607420039279e-01 5.9176066707304048e-02  0.0000000000000000e+00 9.4849603909786839e-01 6.1210068571105947e-02  0.0000000000000000e+00 9.4858373608208124e-01 6.3403715350780335e-02  0.0000000000000000e+00 9.4854789459502942e-01 6.5811367592425882e-02  0.0000000000000000e+00 9.4837603241462753e-01 6.8400913099481861e-02  0.0000000000000000e+00 9.4807836004391777e-01 7.1095985186167623e-02  0.0000000000000000e+00 9.4767148651928690e-01 7.3849447817974048e-02  0.0000000000000000e+00 9.4715192222872013e-01 7.6694929275142459e-02  0.0000000000000000e+00 9.4566676855051268e-01 8.3016842345271250e-02  0.0000000000000000e+00 9.4465722054394852e-01 8.6598775403900388e-02  0.0000000000000000e+00 9.4347556655193576e-01 9.0421727878310390e-02  0.0000000000000000e+00 9.4215937621980395e-01 9.4393981396356366e-02  0.0000000000000000e+00 9.4071696091185220e-01 9.8496782225649809e-02  0.0000000000000000e+00 9.3911400815255031e-01 1.0281846300286146e-01  0.0000000000000000e+00 9.3729496807377499e-01 1.0748634564460664e-01  0.0000000000000000e+00 9.3522565935337509e-01 1.1257138512952855e-01  0.0000000000000000e+00 9.3292720513805805e-01 1.1801867049347808e-01  0.0000000000000000e+00 9.3044963152553228e-01 1.2371774892349718e-01  0.0000000000000000e+00 9.2781427169001662e-01 1.2962544268324022e-01  0.0000000000000000e+00 9.2497507664360157e-01 1.3584326478068925e-01  0.0000000000000000e+00 9.2184849352631282e-01 1.4253754211181466e-01  0.0000000000000000e+00 9.1839504782989767e-01 1.4978542865262717e-01  0.0000000000000000e+00 9.1469543354967675e-01 1.5742150414256831e-01  0.0000000000000000e+00 9.1078565090534458e-01 1.6537237220390605e-01  0.0000000000000000e+00 9.0664476176061848e-01 1.7368065141705996e-01  0.0000000000000000e+00 9.0220139391012122e-01 1.8248131730053938e-01  0.0000000000000000e+00 8.9735085735928466e-01 1.9196957561581771e-01  0.0000000000000000e+00 8.9217710964420816e-01 2.0198067487753318e-01  0.0000000000000000e+00 8.8675594758352438e-01 2.1236570095168750e-01  0.0000000000000000e+00 8.8110560611363642e-01 2.2308845957245019e-01  0.0000000000000000e+00 8.7510138533961324e-01 2.3437655491837547e-01  0.0000000000000000e+00 8.6862886780435189e-01 2.4643226837630100e-01  0.0000000000000000e+00 8.6176324394941417e-01 2.5910585486000520e-01  0.0000000000000000e+00 8.5465846998425987e-01 2.7210904331457608e-01  0.0000000000000000e+00 8.4733831230689238e-01 2.8539587705969582e-01  0.0000000000000000e+00 8.3971647719249276e-01 2.9911137630784701e-01  0.0000000000000000e+00 8.3158051588236215e-01 3.1362406652579539e-01  0.0000000000000000e+00 8.2304986713181927e-01 3.2870550954160971e-01  0.0000000000000000e+00 8.1430807980831665e-01 3.4402365162559945e-01  0.0000000000000000e+00 8.0546891762498407e-01 3.5937453340278763e-01  0.0000000000000000e+00 7.9646754812867404e-01 3.7486672954453210e-01  0.0000000000000000e+00 7.8708307015901291e-01 3.9086686466312159e-01  0.0000000000000000e+00 7.7724800949273498e-01 4.0747218253515977e-01  0.0000000000000000e+00 7.6726491582184031e-01 4.2415887665408408e-01  0.0000000000000000e+00 7.5735326696232086e-01 4.4056038002217618e-01  0.0000000000000000e+00 7.4751089198087717e-01 4.5668420854658087e-01  0.0000000000000000e+00 7.3776907445459605e-01 4.7248278859621790e-01  0.0000000000000000e+00 7.2790373865061375e-01 4.8831709850994959e-01  0.0000000000000000e+00 7.1777844193273177e-01 5.0439667472269489e-01  0.0000000000000000e+00 7.0758382670000175e-01 5.2040773686807784e-01  0.0000000000000000e+00 6.9753270618446139e-01 5.3602195384358242e-01  0.0000000000000000e+00 6.8803881099240383e-01 5.5060827697815740e-01  0.0000000000000000e+00 6.7904745177386405e-01 5.6428206649795543e-01  0.0000000000000000e+00 6.7061523275528034e-01 5.7697646905733491e-01  0.0000000000000000e+00 6.6264084958670288e-01 5.8886541182314089e-01  0.0000000000000000e+00 6.5496618128693862e-01 6.0020190693507969e-01  0.0000000000000000e+00 6.4758780374483660e-01 6.1100426061838720e-01  0.0000000000000000e+00 6.4045829012464150e-01 6.2134546467554808e-01  0.0000000000000000e+00 6.3360180266664923e-01 6.3120544974377746e-01  0.0000000000000000e+00 6.2731733763158448e-01 6.4016670767132211e-01  0.0000000000000000e+00 6.2169782526545603e-01 6.4812006192261806e-01  0.0000000000000000e+00 6.1675126371308131e-01 6.5507044604603948e-01  0.0000000000000000e+00 6.1254652746266913e-01 6.6094550046059508e-01  0.0000000000000000e+00 6.0913197143388054e-01 6.6569035004014110e-01  0.0000000000000000e+00 7.0330007950563744e-01 5.2708327445095271e-01  0.0000000000000000e+00 9.4429414093274844e-01 4.7745042360280564e-02  0.0000000000000000e+00 7.5486530512829353e-01 4.4465483850079390e-01  0.0000000000000000e+00 9.4677842359042774e-01 7.8428529917563869e-02  0.0000000000000000e+00 6.0917643869020466e-01 6.6562972756742311e-01  0.0000000000000000e+00 9.0494066495704539e-01 2.7582566795037972e-02  0.0000000000000000e+00 8.4977894535704401e-01 2.8097982877163485e-01  0.0000000000000000e+00 9.1838844039157763e-01 1.4977329882879908e-01  0.0000000000000000e+00 8.8342946601469918e-01 2.3693912248449665e-02  0.0000000000000000e+00 9.3804058440522842e-01 4.1018751651754094e-02  0.0000000000000000e+00 7.9253240471330022e-01 3.8159302404790829e-01  0.0000000000000000e+00 9.2922425720683610e-01 3.5442945651522097e-02  0.0000000000000000e+00 9.2724561643687275e-01 3.4570068576843624e-02  0.0000000000000000e+00 8.4353702399339137e-01 2.9225032729197065e-01  0.0000000000000000e+00 9.4700153157061129e-01 5.3878236317636066e-02  0.0000000000000000e+00 7.0697477962985722e-01 5.2136182204969383e-01  0.0000000000000000e+00 9.1526858176844572e-01 3.0218768123424510e-02  0.0000000000000000e+00 9.0084106028873734e-01 2.6708238483256014e-02  0.0000000000000000e+00 6.5806455450535939e-01 5.9564233248169562e-01  0.0000000000000000e+00 8.8917437667512322e-01 2.0774238006964291e-01  0.0000000000000000e+00 9.4812151412611978e-01 7.0005559999170658e-02  0.0000000000000000e+00 9.2011671983144405e-01 1.4618814497086155e-01  0.0000000000000000e+00 6.3381143275258234e-01 6.3090635152004337e-01  0.0000000000000000e+00 8.9073810653790775e-01 2.4847973798478407e-02  0.0000000000000000e+00 9.4283119427361939e-01 9.2239211070618818e-02  0.0000000000000000e+00 9.3397662049153996e-01 1.1554328527704399e-01  0.0000000000000000e+00 6.1153988907448331e-01 6.6234647027146110e-01  0.0000000000000000e+00 6.5229012805757014e-01 6.0413391598961030e-01  0.0000000000000000e+00 9.4815953084707538e-01 5.8428786195622688e-02  0.0000000000000000e+00 8.9254193057348774e-01 2.5154484105751558e-02  0.0000000000000000e+00 8.8424915691847128e-01 2.1713178734999763e-01  0.0000000000000000e+00 7.9993501639164055e-01 3.6891699519101190e-01  0.0000000000000000e+00 8.8458361728965762e-01 2.3861864783031091e-02  0.0000000000000000e+00 9.3552099586380377e-01 1.1177694245579108e-01  0.0000000000000000e+00 9.4136905445393826e-01 9.6655151141405299e-02  0.0000000000000000e+00 6.0414857136116862e-01 6.7257786411746823e-01  0.0000000000000000e+00 9.1774593216770761e-01 3.1002778143854499e-02  0.0000000000000000e+00 9.3886469702402009e-01 4.1617327198232773e-02  0.0000000000000000e+00 6.2572889031162593e-01 6.4242172692248878e-01  0.0000000000000000e+00 7.4354767295494872e-01 4.6313558857645359e-01  0.0000000000000000e+00 9.4842461921739352e-01 6.7651615484270677e-02  0.0000000000000000e+00 8.8661271460105506e-01 2.4176065125431852e-02  0.0000000000000000e+00 9.0267542753944174e-01 1.8153407194973517e-01  0.0000000000000000e+00 6.8461019826716996e-01 5.5584016963862559e-01  0.0000000000000000e+00 8.6804547841450064e-01 2.4751321117048650e-01  0.0000000000000000e+00 8.8295843994891754e-01 2.3618889388361129e-02  0.0000000000000000e+00 8.9833471716247704e-01 2.6214780795400242e-02  0.0000000000000000e+00 9.2781194090364472e-01 1.2958627832088490e-01  0.0000000000000000e+00 9.4274742007586321e-01 4.5746262300005225e-02  0.0000000000000000e+00 6.7562062968013381e-01 5.6945357819303655e-01  0.0000000000000000e+00 7.7867024464132173e-01 4.0508542466474395e-01  0.0000000000000000e+00 8.6500069199359608e-01 2.5314330142694175e-01  0.0000000000000000e+00 9.0887929324159622e-01 2.8497344275629569e-02  0.0000000000000000e+00 9.0417123542231759e-01 1.7859298203367963e-01  0.0000000000000000e+00 9.4678883036537687e-01 5.2922367546231676e-02  0.0000000000000000e+00 8.2288148882697743e-01 3.2900346719416806e-01  0.0000000000