<?xml version="1.0"?>
<VTKFile type="UnstructuredGrid"  version="0.1"  >
<UnstructuredGrid>
<Piece  NumberOfPoints="4940" NumberOfCells="9650">
<Points>
<DataArray  type="Float64"  NumberOfComponents="3"  format="ascii">500 250 0  0 250 0  250 500 0  250 0 0  256.8885856082646 499.9050767557906 0  263.7719401218049 499.6203791065173 0  270.6448364229772 499.1461232471188 0  277.5020553257866 498.4826693209355 0  284.3383895508592 497.6305211460281 0  291.1486476865662 496.5903258312597 0  297.9276581259182 495.3628732847843 0  304.6702729675493 493.9490956196674 0  311.3713719748657 492.3500664368026 0  318.0258664141369 490.5670000199653 0  324.6287029687753 488.6012504015818 0  331.1748675330201 486.4543103455647 0  337.6593890460416 484.1278102064655 0  344.0773432429536 481.6235166997244 0  350.4238564271474 478.9433315480048 0  356.694109139292 476.0892900492477 0  362.88333985546 473.0635595140469 0  368.9868485575419 469.8684376402048 0  375.0000003153078 466.5063507640667 0  380.9182288257928 462.9798520074548 0  386.7370398729688 459.2916193419558 0  392.4520147244077 455.444453565817 0  398.0588135356345 451.4412761437442 0  403.5531785622926 447.285127045646 0  408.9309374414144 442.9791624087773 0  414.1880064015299 438.5266521049243 0  419.3203932989752 433.9309773069245 0  424.324200661095 429.1956279150535 0  429.1956286596235 424.3241998957182 0  433.9309780058756 419.3203925397119 0  438.5266527445345 414.1880056671062 0  442.9791630130591 408.9309367076756 0  447.2851276060475 403.5531778422888 0  451.4412766621026 398.0588128303826 0  455.4444540361634 392.4520140460735 0  459.2916197786263 386.7370392045948 0  462.9798524073514 380.9182281752347 0  466.5063511234856 374.9999996927758 0  469.8684379657123 368.9868479560565 0  473.0635598144817 362.8833392617846 0  476.0892903190255 356.6941085676214 0  478.9433317963513 350.4238558609745 0  481.6235169154735 344.0773427117675 0  484.12781039012 337.6593885555221 0  486.4543105028062 331.1748670749914 0  488.601250531677 324.6287025528375 0  490.5670001317469 318.0258660188321 0  492.3500665291326 311.3713716102628 0  493.949095695951 304.6702726271575 0  495.3628733416623 297.9276578347343 0  496.5903258712341 291.1486474470129 0  497.6305211749058 284.3383893426084 0  498.4826693388848 277.502055163614 0  499.1461232580606 270.6448362909296 0  499.6203791109319 263.7719400417897 0  499.9050767571306 256.8885855596534 0  499.9050767559877 243.1114143988867 0  499.6203791069493 236.2280598860241 0  499.1461232485393 229.3551635941651 0  498.4826693235677 222.4979446979962 0  497.6305211491849 215.6616104719064 0  496.5903258357701 208.8513523404629 0  495.3628732906988 202.0723419043604 0  493.9490956264813 195.3297270628552 0  492.3500664487791 188.6286280724281 0  490.5670000344809 181.9741336371959 0  488.6012504175981 175.3712970824318 0  486.4543103623226 168.8251325157939 0  484.1278102222298 162.3406109960628 0  481.6235167152198 155.9226567951971 0  478.9433315621651 149.5761436051346 0  476.0892900516498 143.3058908657982 0  473.063559513628 137.1166601437124 0  469.8684376406648 131.0131514433083 0  466.5063507675389 124.9999996907064 0  462.9798520124137 119.0817711822745 0  459.2916193464549 113.2629601339176 0  455.4444535642773 107.5479852733717 0  451.4412761528674 101.9411864767781 0  447.2851270583545 96.44682145403524 0  442.9791624165781 91.06906256805769 0  438.5266521117469 85.81199360630404 0  433.9309773156125 80.67960671046254 0  429.1956279150353 75.67579933888632 0  424.3241998888952 70.80437133373906 0  419.3203925223282 66.06902197812161 0  414.1880056411937 61.47334723289828 0  408.9309366751728 57.0208369601728 0  403.5531778009394 52.71487236176898 0  398.058812796452 48.55872331295853 0  392.4520140187753 44.55554594490843 0  386.7370391799677 40.70838020528396 0  380.9182281475119 37.02014757560744 0  374.9999996718656 33.49364886444181 0  368.9868479340393 30.13156202237255 0  362.8833392380029 26.93644017348339 0  356.6941085456942 23.91070967062674 0  350.4238558420009 21.0566681953261 0  344.0773426899492 18.37648307566465 0  337.6593885328982 15.87218960140942 0  331.1748670549786 13.54568949032341 0  324.6287025315056 11.39874946165088 0  318.0258660010876 9.432999863235466 0  311.3713716017894 7.649933468721599 0  304.6702726190621 6.050904302234756 0  297.9276578269805 4.637126656823085 0  291.148647441857 3.409674127905504 0  284.3383893425031 2.369478825079682 0  277.502055159398 1.517330660648639 0  270.6448362875833 0.853876741662134 0  263.7719400401456 0.3796208889774277 0  256.8885855592052 0.09492324285704967 0  243.1114143979462 0.09492324403817065 0  236.2280598850882 0.3796208931023841 0  229.3551635938215 0.8538767514891958 0  222.4979446968584 1.517330676558146 0  215.6616104703111 2.369478851036291 0  208.8513523382973 3.409674164591252 0  202.0723419066374 4.637126708856528 0  195.3297270659513 6.050904372824903 0  188.628628074828 7.649933550613184 0  181.9741336377093 9.432999965373938 0  175.3712970793675 11.39874958336037 0  168.8251325057572 13.54568964112298 0  162.340610986655 15.87218978129263 0  155.9226567874317 18.37648328793418 0  149.576143602509 21.05666843898663 0  143.3058908718157 23.91070994551046 0  137.1166601505524 26.93644048291054 0  131.0131514451933 30.13156235831508 0  124.9999996848412 33.49364923584736 0  119.0817711715717 37.0201479941652 0  113.2629601211624 40.70838066187849 0  107.5479852622251 44.55554644345162 0  101.9411864693332 48.55872385260452 0  96.44682143286516 52.71487295812284 0  91.06906254351222 57.02083760363669 0  85.81199358272519 61.4733479087879 0  80.67960667988106 66.06902271253972 0  75.67579930062769 70.80437212218331 0  70.80437129287643 75.67580015310926 0  66.06902193673014 80.67960752263491 0  61.47334718684866 85.81199441168215 0  57.02083692524275 91.0690633672404 0  52.71487232786438 96.44682224262129 0  48.55872328070024 101.941187247437 0  44.55554591578033 107.5479860232332 0  40.7083801742321 113.2629608675606 0  37.02014754791168 119.0817718975441 0  33.49364883372994 125.000000381329 0  30.13156199866361 131.0131521097709 0  26.9364401549829 137.1166607985551 0  23.91070965524918 143.3058914868915 0  21.05666818346614 149.576144185037 0  18.37648306853811 155.9226573275967 0  15.8721895918909 162.3406114925245 0  13.54568948170046 168.8251329701392 0  11.39874945301878 175.3712974960928 0  9.432999857087736 181.9741340206533 0  7.649933466342702 188.6286284076045 0  6.050904301250966 195.3297273853278 0  4.637126656808988 202.0723421730917 0  3.409674127767772 208.8513525589684 0  2.369478824521138 215.6616106615248 0  1.517330660909465 222.4979448382452 0  0.8538767414496533 229.355163714981 0  0.3796208887135322 236.2280599646376 0  0.09492324266324204 243.1114144478261 0  0.0949232442452228 256.8885856095658 0  0.3796208935834784 263.7719401236316 0  0.8538767530323526 270.6448364248016 0  1.517330679476544 277.5020553295092 0  2.369478854618649 284.3383895555228 0  3.409674170191892 291.1486476952655 0  4.6371267162381 297.9276581311522 0  6.050904381420935 304.6702729724059 0  7.649933562385399 311.3713719716595 0  9.43299997979841 318.0258664133013 0  11.3987495994252 324.6287029719946 0  13.54568965885832 331.174867545904 0  15.87218979367188 337.6593890464085 0  18.37648329843151 344.0773432384132 0  21.05666844777872 350.423856417535 0  23.91070995156048 356.6941091410045 0  26.93644048988043 362.8833398632205 0  30.13156235982007 368.9868485575877 0  33.49364924138357 375.0000003247478 0  37.0201480006036 380.9182288389023 0  40.70838066758398 386.7370398875706 0  44.55554644477201 392.4520147396792 0  48.55872386086904 398.0588135419111 0  52.71487295981296 403.5531785693063 0  57.02083760525949 408.9309374584583 0  61.47334790862246 414.1880064170849 0  66.06902271205095 419.320393319588 0  70.80437211216579 424.3242006890749 0  75.67580013809859 429.195628692521 0  80.6796075127923 433.930978054209 0  85.81199439754931 438.5266528008431 0  91.06906334717917 442.9791630582355 0  96.44682221438322 447.2851276501571 0  101.9411872243843 451.441276702356 0  107.5479859945825 455.4444540643537 0  113.2629608446994 459.2916198108319 0  119.0817718768376 462.9798524393601 0  125.0000003647644 466.5063511567065 0  131.0131521012763 469.8684379967393 0  137.1166607840049 473.0635598376539 0  143.3058914748804 476.0892903390826 0  149.5761441732679 478.9433318113714 0  155.9226573130112 481.6235169255377 0  162.3406114779862 484.1278104026658 0  168.8251329570439 486.4543105138039 0  175.3712974805475 488.601250542119 0  181.9741340135204 490.5670001408953 0  188.6286284005059 492.3500665318597 0  195.3297273788229 493.9490956972913 0  202.0723421640089 495.3628733414168 0  208.8513525529672 496.5903258712308 0  215.6616106544547 497.6305211744985 0  222.4979448327038 498.4826693384772 0  229.3551637102845 499.1461232581612 0  236.2280599621369 499.6203791111485 0  243.1114144470173 499.9050767573145 0  155.2373389820306 474.8197567317462 0  25.36256300907667 153.9152755065208 0  432.3709625126712 412.6214396304305 0  6.013151705810699 246.637913163471 0  246.6379131630491 493.986848294322 0  338.6995838441862 22.68244767887072 0  477.3175523131281 338.6995838660569 0  493.9868482700757 246.6379131399102 0  246.6201155078769 6.218451882810491 0  417.6179310263282 72.7156044707053 0  102.2232990934413 445.0100869616822 0  63.66330858966404 92.20354579482142 0  391.3105220491464 50.73522820883105 0  72.79295043967942 418.0702734974704 0  448.290574428537 108.25674339002 0  402.4604651193511 440.7462829841712 0  97.55317348421397 59.11376320116034 0  136.7376477664901 33.58246472647134 0  363.3288394375288 465.6947312928271 0  44.0678766556007 381.0860953771871 0  469.6905266180034 142.3890690100806 0  22.68244791668644 338.6995843487432 0  338.699584349159 477.317552078365 0  173.389488083762 18.6681884918202 0  483.4809734778481 179.7121987795732 0  13.50237455842738 306.4709525540879 0  305.9825168523021 487.24416992
[...]
<PointData  Vectors="f_12"> 
<DataArray  type="Float64"  Name="f_12"  NumberOfComponents="3" format="ascii">0.0000000000000000e+00 6.1511210731566501e-01 1.0529025958479902e-02  0.0000000000000000e+00 3.7790184495491330e-01 7.8109507878429589e-03  0.0000000000000000e+00 9.3880961845227573e-01 4.1783823347604998e-02  0.0000000000000000e+00 1.0326953783398750e-01 1.2213264346630498e-02  0.0000000000000000e+00 9.3906930632806029e-01 4.2007478537516386e-02  0.0000000000000000e+00 9.3922685536855988e-01 4.2145632883494190e-02  0.0000000000000000e+00 9.3931256172252964e-01 4.2221032609303009e-02  0.0000000000000000e+00 9.3931060687165069e-01 4.2219342017918909e-02  0.0000000000000000e+00 9.3923112050418256e-01 4.2148778430112652e-02  0.0000000000000000e+00 9.3907239425826816e-01 4.2008765822667597e-02  0.0000000000000000e+00 9.3883202680624234e-01 4.1799974849169981e-02  0.0000000000000000e+00 9.3850915018216285e-01 4.1525331768843626e-02  0.0000000000000000e+00 9.3809809995141324e-01 4.1184629693828551e-02  0.0000000000000000e+00 9.3759047837981535e-01 4.0777554417641880e-02  0.0000000000000000e+00 9.3696913274153115e-01 4.0297567925185698e-02  0.0000000000000000e+00 9.3628347611551299e-01 3.9788503402338915e-02  0.0000000000000000e+00 9.3545023549629858e-01 3.9202085807672420e-02  0.0000000000000000e+00 9.3454930955572824e-01 3.8602373538287896e-02  0.0000000000000000e+00 9.3355127813854688e-01 3.7974444840380817e-02  0.0000000000000000e+00 9.3247053402246272e-01 3.7333738954518011e-02  0.0000000000000000e+00 9.3131523712446074e-01 3.6692711823768744e-02  0.0000000000000000e+00 9.3005805665828389e-01 3.6042673356605465e-02  0.0000000000000000e+00 9.2870480043104930e-01 3.5386987740534337e-02  0.0000000000000000e+00 9.2724569278134628e-01 3.4725171549239930e-02  0.0000000000000000e+00 9.2562398941556046e-01 3.4036008698294089e-02  0.0000000000000000e+00 9.2377666452773854e-01 3.3301662038099242e-02  0.0000000000000000e+00 9.2166328964293498e-01 3.2513758331488542e-02  0.0000000000000000e+00 9.1929977905069427e-01 3.1691873605199504e-02  0.0000000000000000e+00 9.1665815987341637e-01 3.0840681529882803e-02  0.0000000000000000e+00 9.1373600185199932e-01 2.9971079641541491e-02  0.0000000000000000e+00 9.1064247724056213e-01 2.9128331792449721e-02  0.0000000000000000e+00 9.0737580581554456e-01 2.8318270625189778e-02  0.0000000000000000e+00 9.0394595005186940e-01 2.7541549443734673e-02  0.0000000000000000e+00 9.0029569646875873e-01 2.6783034190364170e-02  0.0000000000000000e+00 8.9626422676632034e-01 2.6012837415407473e-02  0.0000000000000000e+00 8.9179648406493950e-01 2.5223794718916212e-02  0.0000000000000000e+00 8.8684086959276587e-01 2.4413166823081488e-02  0.0000000000000000e+00 8.8136256250121303e-01 2.3590419451784639e-02  0.0000000000000000e+00 8.7546628592128228e-01 2.2785142172220673e-02  0.0000000000000000e+00 8.6932116366859102e-01 2.2025735428750578e-02  0.0000000000000000e+00 8.6291415334880539e-01 2.1309814742161998e-02  0.0000000000000000e+00 8.5604122574957942e-01 2.0609765092793938e-02  0.0000000000000000e+00 8.4853437978139779e-01 1.9906013927423843e-02  0.0000000000000000e+00 8.4033894702439493e-01 1.9200299786779364e-02  0.0000000000000000e+00 8.3143653707306753e-01 1.8497113970123453e-02  0.0000000000000000e+00 8.2201078225132795e-01 1.7817972195173608e-02  0.0000000000000000e+00 8.1222309228862133e-01 1.7181491455534863e-02  0.0000000000000000e+00 8.0207198476751196e-01 1.6585933624180503e-02  0.0000000000000000e+00 7.9119327044245336e-01 1.6001279603449579e-02  0.0000000000000000e+00 7.7953547361249087e-01 1.5421769936137447e-02  0.0000000000000000e+00 7.6704480116360063e-01 1.4850686478008189e-02  0.0000000000000000e+00 7.5397675858004398e-01 1.4302414816993392e-02  0.0000000000000000e+00 7.4055048218683250e-01 1.3792299446224850e-02  0.0000000000000000e+00 7.2674405857770197e-01 1.3315776370479900e-02  0.0000000000000000e+00 7.1238554519092634e-01 1.2860707926438340e-02  0.0000000000000000e+00 6.9727063771456144e-01 1.2417562870549645e-02  0.0000000000000000e+00 6.8132955269114681e-01 1.1981963086903174e-02  0.0000000000000000e+00 6.6495260974062964e-01 1.1569433878460119e-02  0.0000000000000000e+00 6.4848257171370050e-01 1.1185562426079725e-02  0.0000000000000000e+00 6.3227233829092133e-01 1.0851180978631431e-02  0.0000000000000000e+00 5.9752504633495274e-01 1.0200544874488793e-02  0.0000000000000000e+00 5.7956695418653981e-01 9.8948471284699326e-03  0.0000000000000000e+00 5.6183700873048137e-01 9.6232709971374904e-03  0.0000000000000000e+00 5.4415684953399801e-01 9.3700677684858506e-03  0.0000000000000000e+00 5.2661220369845907e-01 9.1450419548271735e-03  0.0000000000000000e+00 5.0873385832272611e-01 8.9253231380938720e-03  0.0000000000000000e+00 4.9074281247069784e-01 8.7217096183447793e-03  0.0000000000000000e+00 4.7297886999711941e-01 8.5366134769787969e-03  0.0000000000000000e+00 4.5572856932488442e-01 8.3751446800676716e-03  0.0000000000000000e+00 4.3894421911172199e-01 8.2359637904116118e-03  0.0000000000000000e+00 4.2225849861869191e-01 8.1086437967309057e-03  0.0000000000000000e+00 4.0568528671804344e-01 7.9941431574241037e-03  0.0000000000000000e+00 3.8930905650174641e-01 7.8921485956577296e-03  0.0000000000000000e+00 3.7359871717767151e-01 7.8092184515207138e-03  0.0000000000000000e+00 3.5863400553331143e-01 7.7456678924344340e-03  0.0000000000000000e+00 3.4422732815603957e-01 7.6992467544018646e-03  0.0000000000000000e+00 3.3006687929691064e-01 7.6636516191989123e-03  0.0000000000000000e+00 3.1613262715288870e-01 7.6393531802260023e-03  0.0000000000000000e+00 3.0266837082065978e-01 7.6285594726343622e-03  0.0000000000000000e+00 2.8994502592397958e-01 7.6332998629493843e-03  0.0000000000000000e+00 2.7795439351524448e-01 7.6531104364913087e-03  0.0000000000000000e+00 2.6663097196216379e-01 7.6876512399707162e-03  0.0000000000000000e+00 2.5556432480252977e-01 7.7334222876133405e-03  0.0000000000000000e+00 2.4480052659761647e-01 7.7897971904778238e-03  0.0000000000000000e+00 2.3444950277750531e-01 7.8579976611008739e-03  0.0000000000000000e+00 2.2476149422635988e-01 7.9386773449668172e-03  0.0000000000000000e+00 2.1582246652517198e-01 8.0311062291673532e-03  0.0000000000000000e+00 2.0750069529425583e-01 8.1344354033966188e-03  0.0000000000000000e+00 1.9956594757578539e-01 8.2464828609712867e-03  0.0000000000000000e+00 1.9185079497534993e-01 8.3701259155632163e-03  0.0000000000000000e+00 1.8437149553042395e-01 8.5042593699438725e-03  0.0000000000000000e+00 1.7726292826607515e-01 8.6484247934433892e-03  0.0000000000000000e+00 1.7065555644618974e-01 8.8014515623537400e-03  0.0000000000000000e+00 1.6467429260171715e-01 8.9583451264313631e-03  0.0000000000000000e+00 1.5928495680452426e-01 9.1171017103120981e-03  0.0000000000000000e+00 1.5420272096154417e-01 9.2808615195403132e-03  0.0000000000000000e+00 1.4936230642804069e-01 9.4507122885825676e-03  0.0000000000000000e+00 1.4478605157082189e-01 9.6251637834094232e-03  0.0000000000000000e+00 1.4029225840357074e-01 9.8085244013538121e-03  0.0000000000000000e+00 1.3596201065398311e-01 9.9997711992253994e-03  0.0000000000000000e+00 1.3205421116314792e-01 1.0187497043364576e-02  0.0000000000000000e+00 1.2847783350166281e-01 1.0376731333597232e-02  0.0000000000000000e+00 1.2528571255151180e-01 1.0557505063054029e-02  0.0000000000000000e+00 1.2242929501489036e-01 1.0731576125389910e-02  0.0000000000000000e+00 1.1988224139083155e-01 1.0896281767276261e-02  0.0000000000000000e+00 1.1757621167748358e-01 1.1053594891457085e-02  0.0000000000000000e+00 1.1548196398827519e-01 1.1202974330692232e-02  0.0000000000000000e+00 1.1357342435586727e-01 1.1344754763987254e-02  0.0000000000000000e+00 1.1179342077740913e-01 1.1481568761100857e-02  0.0000000000000000e+00 1.1013794937219672e-01 1.1612245446177512e-02  0.0000000000000000e+00 1.0864893548942514e-01 1.1733755149223195e-02  0.0000000000000000e+00 1.0733456808064258e-01 1.1844872945343886e-02  0.0000000000000000e+00 1.0620352958637871e-01 1.1944403669646650e-02  0.0000000000000000e+00 1.0519754480521745e-01 1.2034814105438753e-02  0.0000000000000000e+00 1.0438467823049567e-01 1.2109212730911272e-02  0.0000000000000000e+00 1.0372979812552194e-01 1.2169771106011036e-02  0.0000000000000000e+00 1.0306037574642907e-01 1.2235048086034948e-02  0.0000000000000000e+00 1.0261493430808759e-01 1.2272922694664014e-02  0.0000000000000000e+00 1.0281659842596572e-01 1.2256998982397760e-02  0.0000000000000000e+00 1.0299028384054122e-01 1.2240168364465672e-02  0.0000000000000000e+00 1.0329737196670397e-01 1.2210554204907308e-02  0.0000000000000000e+00 1.0379318096854631e-01 1.2164696348520469e-02  0.0000000000000000e+00 1.0447011929298759e-01 1.2102440088186339e-02  0.0000000000000000e+00 1.0525858614216711e-01 1.2030622904898635e-02  0.0000000000000000e+00 1.0620741452903858e-01 1.1945914081182131e-02  0.0000000000000000e+00 1.0710933742452944e-01 1.1864971591252297e-02  0.0000000000000000e+00 1.0842257853538134e-01 1.1754291052459960e-02  0.0000000000000000e+00 1.0977269054860836e-01 1.1643062712545310e-02  0.0000000000000000e+00 1.1122328197466165e-01 1.1527321924354827e-02  0.0000000000000000e+00 1.1270504219620540e-01 1.1409990288038714e-02  0.0000000000000000e+00 1.1432388824198352e-01 1.1286640744679388e-02  0.0000000000000000e+00 1.1612402315609623e-01 1.1155737634721340e-02  0.0000000000000000e+00 1.1798887119818512e-01 1.1024116686211423e-02  0.0000000000000000e+00 1.1997525337142843e-01 1.0888336076253230e-02  0.0000000000000000e+00 1.2211586363424762e-01 1.0748141919011385e-02  0.0000000000000000e+00 1.2445831382279546e-01 1.0602869128576801e-02  0.0000000000000000e+00 1.2706414962339113e-01 1.0451323073319484e-02  0.0000000000000000e+00 1.2993377778228074e-01 1.0294562915848748e-02  0.0000000000000000e+00 1.3301875094525983e-01 1.0136196554119655e-02  0.0000000000000000e+00 1.3632029580533259e-01 9.9782838020677587e-03  0.0000000000000000e+00 1.3981353735173432e-01 9.8224821187228705e-03  0.0000000000000000e+00 1.4343323812369996e-01 9.6715887444483589e-03  0.0000000000000000e+00 1.4713430889729226e-01 9.5267528425033582e-03  0.0000000000000000e+00 1.5088062092169569e-01 9.3888519527820704e-03  0.0000000000000000e+00 1.5469292996319020e-01 9.2566499257023729e-03  0.0000000000000000e+00 1.5861968848428465e-01 9.1288627849490257e-03  0.0000000000000000e+00 1.6274608608935878e-01 9.0037031019994385e-03  0.0000000000000000e+00 1.6714478730258103e-01 8.8802398822820806e-03  0.0000000000000000e+00 1.7191181997181446e-01 8.7581932737948610e-03  0.0000000000000000e+00 1.7707465150235768e-01 8.6395852006084413e-03  0.0000000000000000e+00 1.8262494003788599e-01 8.5245019494453161e-03  0.0000000000000000e+00 1.8840103832532443e-01 8.4161992022015117e-03  0.0000000000000000e+00 1.9428848116539460e-01 8.3156663415232829e-03  0.0000000000000000e+00 2.0020480844184857e-01 8.2225925668873798e-03  0.0000000000000000e+00 2.0617466486805686e-01 8.1364092341616682e-03  0.0000000000000000e+00 2.1229220175583322e-01 8.0567318850844182e-03  0.0000000000000000e+00 2.1887608367502914e-01 7.9808175924434999e-03  0.0000000000000000e+00 2.2592248811525434e-01 7.9106696514145303e-03  0.0000000000000000e+00 2.3340905970105980e-01 7.8480568718634156e-03  0.0000000000000000e+00 2.4145977251795622e-01 7.7910495871056935e-03  0.0000000000000000e+00 2.4989734672748476e-01 7.7428452610758241e-03  0.0000000000000000e+00 2.5849526796592365e-01 7.7018015833707635e-03  0.0000000000000000e+00 2.6698237812868353e-01 7.6673244975577880e-03  0.0000000000000000e+00 2.7592823079281503e-01 7.6397923687386970e-03  0.0000000000000000e+00 2.8516841162812845e-01 7.6199159187405295e-03  0.0000000000000000e+00 2.9507823379125009e-01 7.6075878066941003e-03  0.0000000000000000e+00 3.0565097400664115e-01 7.6096525265324034e-03  0.0000000000000000e+00 3.1691510205881457e-01 7.6197258753744439e-03  0.0000000000000000e+00 3.2858364299828152e-01 7.6407460036051235e-03  0.0000000000000000e+00 3.4037518256799576e-01 7.6689387280515784e-03  0.0000000000000000e+00 3.5232041061324815e-01 7.7039953707574516e-03  0.0000000000000000e+00 3.6471569362103468e-01 7.7494310527260772e-03  0.0000000000000000e+00 3.9194387968898475e-01 7.8887996581488932e-03  0.0000000000000000e+00 4.0658554471650837e-01 7.9812771809932171e-03  0.0000000000000000e+00 4.2150150897046151e-01 8.0861400149626460e-03  0.0000000000000000e+00 4.3652597677000499e-01 8.1984755332847881e-03  0.0000000000000000e+00 4.5183877655403853e-01 8.3239602518404409e-03  0.0000000000000000e+00 4.6779481133729539e-01 8.4692370412501536e-03  0.0000000000000000e+00 4.8453753771733682e-01 8.6394598367232327e-03  0.0000000000000000e+00 5.0184309792914128e-01 8.8314607787834658e-03  0.0000000000000000e+00 5.1930502801728728e-01 9.0391380246161012e-03  0.0000000000000000e+00 5.3672611446020679e-01 9.2599458621617971e-03  0.0000000000000000e+00 5.5427279886854441e-01 9.5011385846222613e-03  0.0000000000000000e+00 5.7218368830380273e-01 9.7686202645408671e-03  0.0000000000000000e+00 5.9046093814216882e-01 1.0068985277670700e-02  0.0000000000000000e+00 6.0883814643331602e-01 1.0396213396476308e-02  0.0000000000000000e+00 6.2686841294905926e-01 1.0739480244439227e-02  0.0000000000000000e+00 6.4460753821576611e-01 1.1104825084238856e-02  0.0000000000000000e+00 6.6229314057022093e-01 1.1504071156505992e-02  0.0000000000000000e+00 6.7987913932199906e-01 1.1939650372960348e-02  0.0000000000000000e+00 6.9726554966285981e-01 1.2416162151764174e-02  0.0000000000000000e+00 7.1400551611477503e-01 1.2911403049676393e-02  0.0000000000000000e+00 7.3007041173735077e-01 1.3430484095914139e-02  0.0000000000000000e+00 7.4559710772533550e-01 1.3984096136614665e-02  0.0000000000000000e+00 7.6074366571563934e-01 1.4585768715549799e-02  0.0000000000000000e+00 7.7537667365652752e-01 1.5233656018489906e-02  0.0000000000000000e+00 7.8918073670831868e-01 1.5906848743076567e-02  0.0000000000000000e+00 8.0204385886021567e-01 1.6596945020164965e-02  0.0000000000000000e+00 8.1418607598290371e-01 1.7319591474855092e-02  0.0000000000000000e+00 8.2569382032790350e-01 1.8090474359789391e-02  0.0000000000000000e+00 8.3663632792805886e-01 1.8917488739517548e-02  0.0000000000000000e+00 8.4676176126843306e-01 1.9767456695573810e-02  0.0000000000000000e+00 8.5598676659979300e-01 2.0623635481773043e-02  0.0000000000000000e+00 8.6441322767484541e-01 2.1493646197828464e-02  0.0000000000000000e+00 8.7222665682676093e-01 2.2398281427605322e-02  0.0000000000000000e+00 8.7954231143023542e-01 2.3356566460864540e-02  0.0000000000000000e+00 8.8632289511269913e-01 2.4355671975604593e-02  0.0000000000000000e+00 8.9241458474603508e-01 2.5351846808038116e-02  0.0000000000000000e+00 8.9781794987282548e-01 2.6327410972290365e-02  0.0000000000000000e+00 9.0267575969327507e-01 2.7296055706342342e-02  0.0000000000000000e+00 9.0707633206494476e-01 2.8273305603725225e-02  0.0000000000000000e+00 9.1112678715023643e-01 2.9283653918081760e-02  0.0000000000000000e+00 9.1487088386133797e-01 3.0327656041201259e-02  0.0000000000000000e+00 9.1825355559203325e-01 3.1373562679779657e-02  0.0000000000000000e+00 9.2124423294930746e-01 3.2391392903338194e-02  0.0000000000000000e+00 9.2381363293181407e-01 3.3339491292205453e-02  0.0000000000000000e+00 9.2603159815731129e-01 3.4228195338891348e-02  0.0000000000000000e+00 9.2795009289981722e-01 3.5062327633795888e-02  0.0000000000000000e+00 9.2964073792567237e-01 3.5855029679746415e-02  0.0000000000000000e+00 9.3116175381944377e-01 3.6625203928548060e-02  0.0000000000000000e+00 9.3252836906674752e-01 3.7379848692389660e-02  0.0000000000000000e+00 9.3376444193247710e-01 3.8118607033527083e-02  0.0000000000000000e+00 9.3488535557557673e-01 3.8835176335102237e-02  0.0000000000000000e+00 9.3586313606887395e-01 3.9501969019154502e-02  0.0000000000000000e+00 9.3669882464615029e-01 4.0106793682059536e-02  0.0000000000000000e+00 9.3740481008402887e-01 4.0642708775369199e-02  0.0000000000000000e+00 9.3798565388951161e-01 4.1100947196233494e-02  0.0000000000000000e+00 9.3844389601861100e-01 4.1475945592145236e-02  0.0000000000000000e+00 9.1964011229852005e-01 3.1837749581122468e-02  0.0000000000000000e+00 2.2932354482640968e-01 7.8846010542914687e-03  0.0000000000000000e+00 8.9777911241252062e-01 2.6296355869101826e-02  0.0000000000000000e+00 3.7217523801637198e-01 7.7860236012525378e-03  0.0000000000000000e+00 9.3848684436183050e-01 4.1514532536328176e-02  0.0000000000000000e+00 1.2471438271166523e-01 1.0600170476625809e-02  0.0000000000000000e+00 8.0675165557595752e-01 1.6856513323227618e-02  0.0000000000000000e+00 6.0619227231947825e-01 1.0360464983620308e-02  0.0000000000000000e+00 1.0410716932737292e-01 1.2150358808521007e-02  0.0000000000000000e+00 1.9623554018303729e-01 8.3009375545581941e-03  0.0000000000000000e+00 8.7548194895388998e-01 2.2814254905359974e-02  0.0000000000000000e+00 1.6585153350900020e-01 8.9214587133825251e-03  0.0000000000000000e+00 1.6200689497848739e-01 9.0388507631869279e-03  0.0000000000000000e+00 8.2019427383972465e-01 1.7713663863072434e-02  0.0000000000000000e+00 2.6133282572577005e-01 7.7099999701083725e-03  0.0000000000000000e+00 9.1787038229378126e-01 3.1225124264973952e-02  0.0000000000000000e+00 1.3878409413166259e-01 9.8747249256408830e-03  0.0000000000000000e+00 1.1979011786750457e-01 1.0909913165466509e-02  0.0000000000000000e+00 9.3045192088047690e-01 3.6244223865306617e-02  0.0000000000000000e+00 7.2312169219988265e-01 1.3203193395137798e-02  0.0000000000000000e+00 3.3693436451042202e-01 7.6809277381206286e-03  0.0000000000000000e+00 5.9991355212261799e-01 1.0236580955397624e-02  0.0000000000000000e+00 9.3485458430213875e-01 3.8805411908445275e-02  0.0000000000000000e+00 1.1016196140536350e-01 1.1622614357930626e-02  0.0000000000000000e+00 4.2877600353561235e-01 8.1586740768198260e-03  0.0000000000000000e+00 5.1139434347588886e-01 8.9468114249448959e-03  0.0000000000000000e+00 9.3818560276370055e-01 4.1260325374923301e-02  0.0000000000000000e+00 9.3172626713848439e-01 3.6933886664710321e-02  0.0000000000000000e+00 2.8146224799772762e-01 7.6301672749055438e-03  0.0000000000000000e+00 1.1182920247915200e-01 1.1488725773854670e-02  0.0000000000000000e+00 7.3326049439899454e-01 1.3537795807725522e-02  0.0000000000000000e+00 8.6695138863863830e-01 2.1755674227111527e-02  0.0000000000000000e+00 1.0500931072967747e-01 1.2064680802527263e-02  0.0000000000000000e+00 4.9832896703948842e-01 8.8069404381398379e-03  0.0000000000000000e+00 4.4489277128318294e-01 8.2680669183199870e-03  0.0000000000000000e+00 9.3913609956926958e-01 4.2068594360497931e-02  0.0000000000000000e+00 1.4337173481272375e-01 9.6868269369261555e-03  0.0000000000000000e+00 1.9811977615266443e-01 8.2585985664153788e-03  0.0000000000000000e+00 9.3615619814043438e-01 3.9713897590999581e-02  0.0000000000000000e+00 9.0462026814428731e-01 2.7716578329728171e-02  0.0000000000000000e+00 3.2512977303055152e-01 7.6372883132847201e-03  0.0000000000000000e+00 1.0670405338083616e-01 1.1914048985876528e-02  0.0000000000000000e+00 6.7457043691721830e-01 1.1810106968558994e-02  0.0000000000000000e+00 9.2441614214482870e-01 3.3553780114314313e-02  0.0000000000000000e+00 7.7291013655010810e-01 1.5115407230942787e-02  0.0000000000000000e+00 1.0371545227625477e-01 1.2184248611895876e-02  0.0000000000000000e+00 1.1734657748455947e-01 1.1078158140641158e-02  0.0000000000000000e+00 5.5254431082585531e-01 9.4891116580182681e-03  0.0000000000000000e+00 2.2039962738122490e-01 7.9838247176192301e-03  0.0000000000000000e+00 9.2689252634103214e-01 3.4598447618743908e-02  0.0000000000000000e+00 8.8364824567397693e-01 2.3926822368634922e-02  0.0000000000000000e+00 7.8301274614303529e-01 1.5601056151383739e-02  0.0000000000000000e+00 1.2945302044439691e-01 1.0329461111740457e-02  0.0000000000000000e+00 6.7233594320325174e-01 1.1749594332505327e-02  0.0000000000000000e+00 2.5519295358936273e-01 7.7202630314665514e-03  0.0000000000000000e+00 8.4410474750268094e-01 1.9519967383114137e-02  0.0000000000