<?xml version="1.0"?>
<VTKFile type="UnstructuredGrid"  version="0.1"  >
<UnstructuredGrid>
<Piece  NumberOfPoints="4940" NumberOfCells="9650">
<Points>
<DataArray  type="Float64"  NumberOfComponents="3"  format="ascii">500 250 0  0 250 0  250 500 0  250 0 0  256.8885856082646 499.9050767557906 0  263.7719401218049 499.6203791065173 0  270.6448364229772 499.1461232471188 0  277.5020553257866 498.4826693209355 0  284.3383895508592 497.6305211460281 0  291.1486476865662 496.5903258312597 0  297.9276581259182 495.3628732847843 0  304.6702729675493 493.9490956196674 0  311.3713719748657 492.3500664368026 0  318.0258664141369 490.5670000199653 0  324.6287029687753 488.6012504015818 0  331.1748675330201 486.4543103455647 0  337.6593890460416 484.1278102064655 0  344.0773432429536 481.6235166997244 0  350.4238564271474 478.9433315480048 0  356.694109139292 476.0892900492477 0  362.88333985546 473.0635595140469 0  368.9868485575419 469.8684376402048 0  375.0000003153078 466.5063507640667 0  380.9182288257928 462.9798520074548 0  386.7370398729688 459.2916193419558 0  392.4520147244077 455.444453565817 0  398.0588135356345 451.4412761437442 0  403.5531785622926 447.285127045646 0  408.9309374414144 442.9791624087773 0  414.1880064015299 438.5266521049243 0  419.3203932989752 433.9309773069245 0  424.324200661095 429.1956279150535 0  429.1956286596235 424.3241998957182 0  433.9309780058756 419.3203925397119 0  438.5266527445345 414.1880056671062 0  442.9791630130591 408.9309367076756 0  447.2851276060475 403.5531778422888 0  451.4412766621026 398.0588128303826 0  455.4444540361634 392.4520140460735 0  459.2916197786263 386.7370392045948 0  462.9798524073514 380.9182281752347 0  466.5063511234856 374.9999996927758 0  469.8684379657123 368.9868479560565 0  473.0635598144817 362.8833392617846 0  476.0892903190255 356.6941085676214 0  478.9433317963513 350.4238558609745 0  481.6235169154735 344.0773427117675 0  484.12781039012 337.6593885555221 0  486.4543105028062 331.1748670749914 0  488.601250531677 324.6287025528375 0  490.5670001317469 318.0258660188321 0  492.3500665291326 311.3713716102628 0  493.949095695951 304.6702726271575 0  495.3628733416623 297.9276578347343 0  496.5903258712341 291.1486474470129 0  497.6305211749058 284.3383893426084 0  498.4826693388848 277.502055163614 0  499.1461232580606 270.6448362909296 0  499.6203791109319 263.7719400417897 0  499.9050767571306 256.8885855596534 0  499.9050767559877 243.1114143988867 0  499.6203791069493 236.2280598860241 0  499.1461232485393 229.3551635941651 0  498.4826693235677 222.4979446979962 0  497.6305211491849 215.6616104719064 0  496.5903258357701 208.8513523404629 0  495.3628732906988 202.0723419043604 0  493.9490956264813 195.3297270628552 0  492.3500664487791 188.6286280724281 0  490.5670000344809 181.9741336371959 0  488.6012504175981 175.3712970824318 0  486.4543103623226 168.8251325157939 0  484.1278102222298 162.3406109960628 0  481.6235167152198 155.9226567951971 0  478.9433315621651 149.5761436051346 0  476.0892900516498 143.3058908657982 0  473.063559513628 137.1166601437124 0  469.8684376406648 131.0131514433083 0  466.5063507675389 124.9999996907064 0  462.9798520124137 119.0817711822745 0  459.2916193464549 113.2629601339176 0  455.4444535642773 107.5479852733717 0  451.4412761528674 101.9411864767781 0  447.2851270583545 96.44682145403524 0  442.9791624165781 91.06906256805769 0  438.5266521117469 85.81199360630404 0  433.9309773156125 80.67960671046254 0  429.1956279150353 75.67579933888632 0  424.3241998888952 70.80437133373906 0  419.3203925223282 66.06902197812161 0  414.1880056411937 61.47334723289828 0  408.9309366751728 57.0208369601728 0  403.5531778009394 52.71487236176898 0  398.058812796452 48.55872331295853 0  392.4520140187753 44.55554594490843 0  386.7370391799677 40.70838020528396 0  380.9182281475119 37.02014757560744 0  374.9999996718656 33.49364886444181 0  368.9868479340393 30.13156202237255 0  362.8833392380029 26.93644017348339 0  356.6941085456942 23.91070967062674 0  350.4238558420009 21.0566681953261 0  344.0773426899492 18.37648307566465 0  337.6593885328982 15.87218960140942 0  331.1748670549786 13.54568949032341 0  324.6287025315056 11.39874946165088 0  318.0258660010876 9.432999863235466 0  311.3713716017894 7.649933468721599 0  304.6702726190621 6.050904302234756 0  297.9276578269805 4.637126656823085 0  291.148647441857 3.409674127905504 0  284.3383893425031 2.369478825079682 0  277.502055159398 1.517330660648639 0  270.6448362875833 0.853876741662134 0  263.7719400401456 0.3796208889774277 0  256.8885855592052 0.09492324285704967 0  243.1114143979462 0.09492324403817065 0  236.2280598850882 0.3796208931023841 0  229.3551635938215 0.8538767514891958 0  222.4979446968584 1.517330676558146 0  215.6616104703111 2.369478851036291 0  208.8513523382973 3.409674164591252 0  202.0723419066374 4.637126708856528 0  195.3297270659513 6.050904372824903 0  188.628628074828 7.649933550613184 0  181.9741336377093 9.432999965373938 0  175.3712970793675 11.39874958336037 0  168.8251325057572 13.54568964112298 0  162.340610986655 15.87218978129263 0  155.9226567874317 18.37648328793418 0  149.576143602509 21.05666843898663 0  143.3058908718157 23.91070994551046 0  137.1166601505524 26.93644048291054 0  131.0131514451933 30.13156235831508 0  124.9999996848412 33.49364923584736 0  119.0817711715717 37.0201479941652 0  113.2629601211624 40.70838066187849 0  107.5479852622251 44.55554644345162 0  101.9411864693332 48.55872385260452 0  96.44682143286516 52.71487295812284 0  91.06906254351222 57.02083760363669 0  85.81199358272519 61.4733479087879 0  80.67960667988106 66.06902271253972 0  75.67579930062769 70.80437212218331 0  70.80437129287643 75.67580015310926 0  66.06902193673014 80.67960752263491 0  61.47334718684866 85.81199441168215 0  57.02083692524275 91.0690633672404 0  52.71487232786438 96.44682224262129 0  48.55872328070024 101.941187247437 0  44.55554591578033 107.5479860232332 0  40.7083801742321 113.2629608675606 0  37.02014754791168 119.0817718975441 0  33.49364883372994 125.000000381329 0  30.13156199866361 131.0131521097709 0  26.9364401549829 137.1166607985551 0  23.91070965524918 143.3058914868915 0  21.05666818346614 149.576144185037 0  18.37648306853811 155.9226573275967 0  15.8721895918909 162.3406114925245 0  13.54568948170046 168.8251329701392 0  11.39874945301878 175.3712974960928 0  9.432999857087736 181.9741340206533 0  7.649933466342702 188.6286284076045 0  6.050904301250966 195.3297273853278 0  4.637126656808988 202.0723421730917 0  3.409674127767772 208.8513525589684 0  2.369478824521138 215.6616106615248 0  1.517330660909465 222.4979448382452 0  0.8538767414496533 229.355163714981 0  0.3796208887135322 236.2280599646376 0  0.09492324266324204 243.1114144478261 0  0.0949232442452228 256.8885856095658 0  0.3796208935834784 263.7719401236316 0  0.8538767530323526 270.6448364248016 0  1.517330679476544 277.5020553295092 0  2.369478854618649 284.3383895555228 0  3.409674170191892 291.1486476952655 0  4.6371267162381 297.9276581311522 0  6.050904381420935 304.6702729724059 0  7.649933562385399 311.3713719716595 0  9.43299997979841 318.0258664133013 0  11.3987495994252 324.6287029719946 0  13.54568965885832 331.174867545904 0  15.87218979367188 337.6593890464085 0  18.37648329843151 344.0773432384132 0  21.05666844777872 350.423856417535 0  23.91070995156048 356.6941091410045 0  26.93644048988043 362.8833398632205 0  30.13156235982007 368.9868485575877 0  33.49364924138357 375.0000003247478 0  37.0201480006036 380.9182288389023 0  40.70838066758398 386.7370398875706 0  44.55554644477201 392.4520147396792 0  48.55872386086904 398.0588135419111 0  52.71487295981296 403.5531785693063 0  57.02083760525949 408.9309374584583 0  61.47334790862246 414.1880064170849 0  66.06902271205095 419.320393319588 0  70.80437211216579 424.3242006890749 0  75.67580013809859 429.195628692521 0  80.6796075127923 433.930978054209 0  85.81199439754931 438.5266528008431 0  91.06906334717917 442.9791630582355 0  96.44682221438322 447.2851276501571 0  101.9411872243843 451.441276702356 0  107.5479859945825 455.4444540643537 0  113.2629608446994 459.2916198108319 0  119.0817718768376 462.9798524393601 0  125.0000003647644 466.5063511567065 0  131.0131521012763 469.8684379967393 0  137.1166607840049 473.0635598376539 0  143.3058914748804 476.0892903390826 0  149.5761441732679 478.9433318113714 0  155.9226573130112 481.6235169255377 0  162.3406114779862 484.1278104026658 0  168.8251329570439 486.4543105138039 0  175.3712974805475 488.601250542119 0  181.9741340135204 490.5670001408953 0  188.6286284005059 492.3500665318597 0  195.3297273788229 493.9490956972913 0  202.0723421640089 495.3628733414168 0  208.8513525529672 496.5903258712308 0  215.6616106544547 497.6305211744985 0  222.4979448327038 498.4826693384772 0  229.3551637102845 499.1461232581612 0  236.2280599621369 499.6203791111485 0  243.1114144470173 499.9050767573145 0  155.2373389820306 474.8197567317462 0  25.36256300907667 153.9152755065208 0  432.3709625126712 412.6214396304305 0  6.013151705810699 246.637913163471 0  246.6379131630491 493.986848294322 0  338.6995838441862 22.68244767887072 0  477.3175523131281 338.6995838660569 0  493.9868482700757 246.6379131399102 0  246.6201155078769 6.218451882810491 0  417.6179310263282 72.7156044707053 0  102.2232990934413 445.0100869616822 0  63.66330858966404 92.20354579482142 0  391.3105220491464 50.73522820883105 0  72.79295043967942 418.0702734974704 0  448.290574428537 108.25674339002 0  402.4604651193511 440.7462829841712 0  97.55317348421397 59.11376320116034 0  136.7376477664901 33.58246472647134 0  363.3288394375288 465.6947312928271 0  44.0678766556007 381.0860953771871 0  469.6905266180034 142.3890690100806 0  22.68244791668644 338.6995843487432 0  338.699584349159 477.317552078365 0  173.389488083762 18.6681884918202 0  483.4809734778481 179.7121987795732 0  13.50237455842738 306.4709525540879 0  305.9825168523021 487.24416992
[...]
<PointData  Vectors="f_12"> 
<DataArray  type="Float64"  Name="f_12"  NumberOfComponents="3" format="ascii">0.0000000000000000e+00 8.3959148121881733e-01 1.9173424212795956e-02  0.0000000000000000e+00 6.5097530252846014e-01 1.1204865192821939e-02  0.0000000000000000e+00 9.4225093032265950e-01 9.4022293763354484e-02  0.0000000000000000e+00 2.4087384445172427e-01 7.7631727220067214e-03  0.0000000000000000e+00 9.4207263940149499e-01 9.4550013981759731e-02  0.0000000000000000e+00 9.4196493844102169e-01 9.4865973540811804e-02  0.0000000000000000e+00 9.4190359306757887e-01 9.5045994375280093e-02  0.0000000000000000e+00 9.4190605587897502e-01 9.5038126736348746e-02  0.0000000000000000e+00 9.4196379932328245e-01 9.4869031255592901e-02  0.0000000000000000e+00 9.4207778552615284e-01 9.4535229032894422e-02  0.0000000000000000e+00 9.4224554013260331e-01 9.4041039745198701e-02  0.0000000000000000e+00 9.4246176987741159e-01 9.3398329399880048e-02  0.0000000000000000e+00 9.4272531864760301e-01 9.2606238500451937e-02  0.0000000000000000e+00 9.4303493061226940e-01 9.1662098541646655e-02  0.0000000000000000e+00 9.4339780873245205e-01 9.0535618228319792e-02  0.0000000000000000e+00 9.4376726930573251e-01 8.9368289462480266e-02  0.0000000000000000e+00 9.4419359192551799e-01 8.7980626280125832e-02  0.0000000000000000e+00 9.4461148207103107e-01 8.6576212602527916e-02  0.0000000000000000e+00 9.4503935580670950e-01 8.5085762093607201e-02  0.0000000000000000e+00 9.4546357678737447e-01 8.3546473264510590e-02  0.0000000000000000e+00 9.4586982283159970e-01 8.1992594701095198e-02  0.0000000000000000e+00 9.4626019488060720e-01 8.0394957158696448e-02  0.0000000000000000e+00 9.4662964580638231e-01 7.8772460361445737e-02  0.0000000000000000e+00 9.4697171010337822e-01 7.7141974995700635e-02  0.0000000000000000e+00 9.4729415831905106e-01 7.5448775564835882e-02  0.0000000000000000e+00 9.4759680732504215e-01 7.3655732807962990e-02  0.0000000000000000e+00 9.4787594864766200e-01 7.1749812702267116e-02  0.0000000000000000e+00 9.4811033285242863e-01 6.9805327939749570e-02  0.0000000000000000e+00 9.4828902537818982e-01 6.7819005162255225e-02  0.0000000000000000e+00 9.4840036016276652e-01 6.5795744800908565e-02  0.0000000000000000e+00 9.4842578236700914e-01 6.3843266018301384e-02  0.0000000000000000e+00 9.4835771675684255e-01 6.1946326611818710e-02  0.0000000000000000e+00 9.4819523281825469e-01 6.0097086006579405e-02  0.0000000000000000e+00 9.4793428730842655e-01 5.8268438700448864e-02  0.0000000000000000e+00 9.4755344371516170e-01 5.6388372829930145e-02  0.0000000000000000e+00 9.4704367121549371e-01 5.4471021908157592e-02  0.0000000000000000e+00 9.4639368253038969e-01 5.2537913725123932e-02  0.0000000000000000e+00 9.4557596131958743e-01 5.0608720642614013e-02  0.0000000000000000e+00 9.4458330365236998e-01 4.8740137652997305e-02  0.0000000000000000e+00 9.4343148892856910e-01 4.6975779406187960e-02  0.0000000000000000e+00 9.4210350598488446e-01 4.5285895469911096e-02  0.0000000000000000e+00 9.4054093200735900e-01 4.3594018148630884e-02  0.0000000000000000e+00 9.3870600301428986e-01 4.1876274678953669e-02  0.0000000000000000e+00 9.3659477621916820e-01 4.0177336655979404e-02  0.0000000000000000e+00 9.3419453135041375e-01 3.8521645002552479e-02  0.0000000000000000e+00 9.3152695293798360e-01 3.6943038436537415e-02  0.0000000000000000e+00 9.2858613173273175e-01 3.5453245959083224e-02  0.0000000000000000e+00 9.2532690580081234e-01 3.4024269841188060e-02  0.0000000000000000e+00 9.2160804584831890e-01 3.2589308734103491e-02  0.0000000000000000e+00 9.1745598824029007e-01 3.1172387178700321e-02  0.0000000000000000e+00 9.1286785299433437e-01 2.9806368743150770e-02  0.0000000000000000e+00 9.0790306097704154e-01 2.8517527732521426e-02  0.0000000000000000e+00 9.0254835441452719e-01 2.7309206728194060e-02  0.0000000000000000e+00 8.9668491767163805e-01 2.6144724325876306e-02  0.0000000000000000e+00 8.9023280559749685e-01 2.5004980007762721e-02  0.0000000000000000e+00 8.8317436024408880e-01 2.3897492456158711e-02  0.0000000000000000e+00 8.7551435983512660e-01 2.2833097593033348e-02  0.0000000000000000e+00 8.6737235357353604e-01 2.1834814421793174e-02  0.0000000000000000e+00 8.5875254154538716e-01 2.0893686935447003e-02  0.0000000000000000e+00 8.4978488282938369e-01 2.0033093832765754e-02  0.0000000000000000e+00 8.2893106650859283e-01 1.8326541821635192e-02  0.0000000000000000e+00 8.1768810683146964e-01 1.7540507723253343e-02  0.0000000000000000e+00 8.0612586266419106e-01 1.6830350061358395e-02  0.0000000000000000e+00 7.9389661198578387e-01 1.6146531232573712e-02  0.0000000000000000e+00 7.8102881315254058e-01 1.5498428415626757e-02  0.0000000000000000e+00 7.6736920722715063e-01 1.4864006088212827e-02  0.0000000000000000e+00 7.5324197327212283e-01 1.4272647938574131e-02  0.0000000000000000e+00 7.3884491640314431e-01 1.3729557167782652e-02  0.0000000000000000e+00 7.2416464996882213e-01 1.3227391935573950e-02  0.0000000000000000e+00 7.0901114301575308e-01 1.2752985431568024e-02  0.0000000000000000e+00 6.9319783849571581e-01 1.2292597535887718e-02  0.0000000000000000e+00 6.7705859185814421e-01 1.1859766197797095e-02  0.0000000000000000e+00 6.6078976778167697e-01 1.1459716652641679e-02  0.0000000000000000e+00 6.4465343319890944e-01 1.1098142039946295e-02  0.0000000000000000e+00 6.2847950978452416e-01 1.0764119113700649e-02  0.0000000000000000e+00 6.1204367921105640e-01 1.0448078960006168e-02  0.0000000000000000e+00 5.9529641141534206e-01 1.0144645951532333e-02  0.0000000000000000e+00 5.7854943729294206e-01 9.8622747820118900e-03  0.0000000000000000e+00 5.6215889628581484e-01 9.6078201822343296e-03  0.0000000000000000e+00 5.4623309580890644e-01 9.3803413746980160e-03  0.0000000000000000e+00 5.3051645267276148e-01 9.1715587886544245e-03  0.0000000000000000e+00 5.1491699923999390e-01 8.9778921843958991e-03  0.0000000000000000e+00 4.9922631147107016e-01 8.7933785648169668e-03  0.0000000000000000e+00 4.8383029890514095e-01 8.6234712506712812e-03  0.0000000000000000e+00 4.6899005411447886e-01 8.4724685022600620e-03  0.0000000000000000e+00 4.5489563813246242e-01 8.3419609193105138e-03  0.0000000000000000e+00 4.4143028623791536e-01 8.2284483647732526e-03  0.0000000000000000e+00 4.2831077808077667e-01 8.1264337379948516e-03  0.0000000000000000e+00 4.1534743763641385e-01 8.0308226439153238e-03  0.0000000000000000e+00 4.0255539729554030e-01 7.9433303379476058e-03  0.0000000000000000e+00 3.9019190822697664e-01 7.8658492855229207e-03  0.0000000000000000e+00 3.7851797215028837e-01 7.8010803946177276e-03  0.0000000000000000e+00 3.6760978326877675e-01 7.7493964514305158e-03  0.0000000000000000e+00 3.5750040809491040e-01 7.7088592296188233e-03  0.0000000000000000e+00 3.4804242082611403e-01 7.6769654381621272e-03  0.0000000000000000e+00 3.3877754795821180e-01 7.6491959624274521e-03  0.0000000000000000e+00 3.2973918373455186e-01 7.6262429830963006e-03  0.0000000000000000e+00 3.2113928478039433e-01 7.6091301301240291e-03  0.0000000000000000e+00 3.1276598478637235e-01 7.5959298701680396e-03  0.0000000000000000e+00 3.0480014125533617e-01 7.5883735821750363e-03  0.0000000000000000e+00 2.9768510770901752e-01 7.5870007877034181e-03  0.0000000000000000e+00 2.9115633856337036e-01 7.5918929064261800e-03  0.0000000000000000e+00 2.8524532513062323e-01 7.5993884173561716e-03  0.0000000000000000e+00 2.7982275932928191e-01 7.6096556739022698e-03  0.0000000000000000e+00 2.7484724658003790e-01 7.6213269997634954e-03  0.0000000000000000e+00 2.7022133238866686e-01 7.6341659026842919e-03  0.0000000000000000e+00 2.6593454930588734e-01 7.6476108426124564e-03  0.0000000000000000e+00 2.6197942992705625e-01 7.6614473254298723e-03  0.0000000000000000e+00 2.5827580692984997e-01 7.6754832030667191e-03  0.0000000000000000e+00 2.5483830887238140e-01 7.6891257658576158e-03  0.0000000000000000e+00 2.5176140211556286e-01 7.7025253850011750e-03  0.0000000000000000e+00 2.4906425322517922e-01 7.7155096710838644e-03  0.0000000000000000e+00 2.4676202772761152e-01 7.7282101987839235e-03  0.0000000000000000e+00 2.4472935815657734e-01 7.7398879968638909e-03  0.0000000000000000e+00 2.4309802223445331e-01 7.7495058780971023e-03  0.0000000000000000e+00 2.4178940254159373e-01 7.7572603928705861e-03  0.0000000000000000e+00 2.4046181424602964e-01 7.7668896723317189e-03  0.0000000000000000e+00 2.3957469410193430e-01 7.7699304996706204e-03  0.0000000000000000e+00 2.3998540348953282e-01 7.7691972365450234e-03  0.0000000000000000e+00 2.4033875187330445e-01 7.7668231346476706e-03  0.0000000000000000e+00 2.4096011080841551e-01 7.7626113482652005e-03  0.0000000000000000e+00 2.4196116163437306e-01 7.7568084367906284e-03  0.0000000000000000e+00 2.4333097613108251e-01 7.7488959767093692e-03  0.0000000000000000e+00 2.4493246786241982e-01 7.7395885882273006e-03  0.0000000000000000e+00 2.4686967829963902e-01 7.7288367356111408e-03  0.0000000000000000e+00 2.4872327283938064e-01 7.7176937402976273e-03  0.0000000000000000e+00 2.5143824936377274e-01 7.7050506581450538e-03  0.0000000000000000e+00 2.5425032514460383e-01 7.6924621021198262e-03  0.0000000000000000e+00 2.5728865237060911e-01 7.6799988008747419e-03  0.0000000000000000e+00 2.6041310191597022e-01 7.6666557886755915e-03  0.0000000000000000e+00 2.6382302940327840e-01 7.6537200531946641e-03  0.0000000000000000e+00 2.6758387833486552e-01 7.6416959041959095e-03  0.0000000000000000e+00 2.7144537175685046e-01 7.6300096915814415e-03  0.0000000000000000e+00 2.7549737191714874e-01 7.6184698955072067e-03  0.0000000000000000e+00 2.7977309986983162e-01 7.6077777095024468e-03  0.0000000000000000e+00 2.8434063556754413e-01 7.5986764893537038e-03  0.0000000000000000e+00 2.8930388981943977e-01 7.5916955797002651e-03  0.0000000000000000e+00 2.9467289205437075e-01 7.5869929841452903e-03  0.0000000000000000e+00 3.0038696211701044e-01 7.5847985773488131e-03  0.0000000000000000e+00 3.0649239510165210e-01 7.5862449175119334e-03  0.0000000000000000e+00 3.1299415494167837e-01 7.5916983170334230e-03  0.0000000000000000e+00 3.1980879073330137e-01 7.6011922706400743e-03  0.0000000000000000e+00 3.2685569653950264e-01 7.6143700522079286e-03  0.0000000000000000e+00 3.3402728337392840e-01 7.6307567337596830e-03  0.0000000000000000e+00 3.4128412846522993e-01 7.6498397901103420e-03  0.0000000000000000e+00 3.4861921179282912e-01 7.6715937784505731e-03  0.0000000000000000e+00 3.5609932546080481e-01 7.6963986308712486e-03  0.0000000000000000e+00 3.6380242166849891e-01 7.7248418188289808e-03  0.0000000000000000e+00 3.7189726073343177e-01 7.7588857816913975e-03  0.0000000000000000e+00 3.8049355274851671e-01 7.8007253063161466e-03  0.0000000000000000e+00 3.8968403058606987e-01 7.8511193141138202e-03  0.0000000000000000e+00 3.9929970450943481e-01 7.9094843471402641e-03  0.0000000000000000e+00 4.0918763517354773e-01 7.9746142977260744e-03  0.0000000000000000e+00 4.1915544909307295e-01 8.0440491384508230e-03  0.0000000000000000e+00 4.2910150668605213e-01 8.1168628085273482e-03  0.0000000000000000e+00 4.3900806937676567e-01 8.1933186043609985e-03  0.0000000000000000e+00 4.4923173961986573e-01 8.2765888836720692e-03  0.0000000000000000e+00 4.5974509270955105e-01 8.3679334508481966e-03  0.0000000000000000e+00 4.7059967806465036e-01 8.4693217955681913e-03  0.0000000000000000e+00 4.8214296271995993e-01 8.5847201440081653e-03  0.0000000000000000e+00 4.9425412648769640e-01 8.7157535876195517e-03  0.0000000000000000e+00 5.0661998595209712e-01 8.8573379529726919e-03  0.0000000000000000e+00 5.1871828955872623e-01 9.0013544427969411e-03  0.0000000000000000e+00 5.3109512068123954e-01 9.1565174515624154e-03  0.0000000000000000e+00 5.4329515955470564e-01 9.3158621095860705e-03  0.0000000000000000e+00 5.5578639402564278e-01 9.4872172859305458e-03  0.0000000000000000e+00 5.6865391997553938e-01 9.6790752658946645e-03  0.0000000000000000e+00 5.8217714654637887e-01 9.8932425989684287e-03  0.0000000000000000e+00 5.9612715686919304e-01 1.0130922881979186e-02  0.0000000000000000e+00 6.1007617200510955e-01 1.0382773533580301e-02  0.0000000000000000e+00 6.2378932263686959e-01 1.0642523180756690e-02  0.0000000000000000e+00 6.3733232272624829e-01 1.0912961305375590e-02  0.0000000000000000e+00 6.6493606123424032e-01 1.1526436676839738e-02  0.0000000000000000e+00 6.7919914548093163e-01 1.1882759155465982e-02  0.0000000000000000e+00 6.9353833803307041e-01 1.2271189764623994e-02  0.0000000000000000e+00 7.0762459726920124e-01 1.2678331160073029e-02  0.0000000000000000e+00 7.2131734692935456e-01 1.3102148657271946e-02  0.0000000000000000e+00 7.3475050078890114e-01 1.3550891838406721e-02  0.0000000000000000e+00 7.4814608331060739e-01 1.4040888409805451e-02  0.0000000000000000e+00 7.6157715494051070e-01 1.4582419700514647e-02  0.0000000000000000e+00 7.7484965743180356e-01 1.5171577645123250e-02  0.0000000000000000e+00 7.8766609029540924e-01 1.5794321030307010e-02  0.0000000000000000e+00 7.9989146561092250e-01 1.6444253434999771e-02  0.0000000000000000e+00 8.1162555722855956e-01 1.7129636659079996e-02  0.0000000000000000e+00 8.2302829881040174e-01 1.7875633426521251e-02  0.0000000000000000e+00 8.3414898245756441e-01 1.8694857957359073e-02  0.0000000000000000e+00 8.4474936988362503e-01 1.9567581917761947e-02  0.0000000000000000e+00 8.5470981684308678e-01 2.0483801837117049e-02  0.0000000000000000e+00 8.6404670816976636e-01 2.1445514256609888e-02  0.0000000000000000e+00 8.7282419504799924e-01 2.2468685019641003e-02  0.0000000000000000e+00 8.8117502507882928e-01 2.3590077183341201e-02  0.0000000000000000e+00 8.8897833702379492e-01 2.4784397853753484e-02  0.0000000000000000e+00 8.9615512836527478e-01 2.6036330647518841e-02  0.0000000000000000e+00 9.0269085437047725e-01 2.7335150474332617e-02  0.0000000000000000e+00 9.0869512959123255e-01 2.8711006606728238e-02  0.0000000000000000e+00 9.1424387297612342e-01 3.0199953409666191e-02  0.0000000000000000e+00 9.1930087820436368e-01 3.1786647842649958e-02  0.0000000000000000e+00 9.2381874238357531e-01 3.3432810719174394e-02  0.0000000000000000e+00 9.2782998809347805e-01 3.5125603726933477e-02  0.0000000000000000e+00 9.3136815789755012e-01 3.6886605057285533e-02  0.0000000000000000e+00 9.3452930390831646e-01 3.8776278771687406e-02  0.0000000000000000e+00 9.3730678320718408e-01 4.0767481305109543e-02  0.0000000000000000e+00 9.3969585028936065e-01 4.2818326763923331e-02  0.0000000000000000e+00 9.4171342490701093e-01 4.4896150883523438e-02  0.0000000000000000e+00 9.4340308556731767e-01 4.7011387018323136e-02  0.0000000000000000e+00 9.4480766187381637e-01 4.9225101325102431e-02  0.0000000000000000e+00 9.4595242049533490e-01 5.1560891647092585e-02  0.0000000000000000e+00 9.4684223487398811e-01 5.3945767956649848e-02  0.0000000000000000e+00 9.4750223950670232e-01 5.6326844668777284e-02  0.0000000000000000e+00 9.4796941722014694e-01 5.8696933683704947e-02  0.0000000000000000e+00 9.4825892685336699e-01 6.1047828502660821e-02  0.0000000000000000e+00 9.4838456610777366e-01 6.3440844187809833e-02  0.0000000000000000e+00 9.4836387781777443e-01 6.5910243840603580e-02  0.0000000000000000e+00 9.4821460917500244e-01 6.8411095560344901e-02  0.0000000000000000e+00 9.4795932089199975e-01 7.0895319105272123e-02  0.0000000000000000e+00 9.4763966483798923e-01 7.3248776016201417e-02  0.0000000000000000e+00 9.4726684487207680e-01 7.5493215717609211e-02  0.0000000000000000e+00 9.4685923835709340e-01 7.7608844204577240e-02  0.0000000000000000e+00 9.4642816311338185e-01 7.9614015511196984e-02  0.0000000000000000e+00 9.4597149423709759e-01 8.1550424086645160e-02  0.0000000000000000e+00 9.4548864562068891e-01 8.3425042176063668e-02  0.0000000000000000e+00 9.4498746152077251e-01 8.5244529015923817e-02  0.0000000000000000e+00 9.4448051983406656e-01 8.6998517053279045e-02  0.0000000000000000e+00 9.4399518387194259e-01 8.8609613178290469e-02  0.0000000000000000e+00 9.4354498819518684e-01 9.0054146607692190e-02  0.0000000000000000e+00 9.4313883931661491e-01 9.1326689969218180e-02  0.0000000000000000e+00 9.4278711688990524e-01 9.2409122830979795e-02  0.0000000000000000e+00 9.4249611844801218e-01 9.3289361554400096e-02  0.0000000000000000e+00 9.4811432889551628e-01 6.9455130319494837e-02  0.0000000000000000e+00 4.6470185964498334e-01 8.4171618232340064e-03  0.0000000000000000e+00 9.4769102507403302e-01 5.7016677612045000e-02  0.0000000000000000e+00 6.4516184745212779e-01 1.1082277159428923e-02  0.0000000000000000e+00 9.4250457552443345e-01 9.3256946302175972e-02  0.0000000000000000e+00 2.8413271360945802e-01 7.6069104786707781e-03  0.0000000000000000e+00 9.2675874073911912e-01 3.4636672565262989e-02  0.0000000000000000e+00 8.3410961948500539e-01 1.8723184151541887e-02  0.0000000000000000e+00 2.4255752439032460e-01 7.7624279608012542e-03  0.0000000000000000e+00 4.0987718178334565e-01 7.9954436429092550e-03  0.0000000000000000e+00 9.4401964963898610e-01 4.7933516807633379e-02  0.0000000000000000e+00 3.6150074519023895e-01 7.7206860781721823e-03  0.0000000000000000e+00 3.5287458676719496e-01 7.6959331636038989e-03  0.0000000000000000e+00 9.2965165049930076e-01 3.6000945997224677e-02  0.0000000000000000e+00 5.0745144994214408e-01 8.8908099326080268e-03  0.0000000000000000e+00 9.4822042511722260e-01 6.8627763372226550e-02  0.0000000000000000e+00 3.1106650215837905e-01 7.5953374665121342e-03  0.0000000000000000e+00 2.7501518610161618e-01 7.6256184624102861e-03  0.0000000000000000e+00 9.4616407033212102e-01 8.0786355437621832e-02  0.0000000000000000e+00 8.9303223614657556e-01 2.5477862488061175e-02  0.0000000000000000e+00 6.0342709234729708e-01 1.0290971074081589e-02  0.0000000000000000e+00 8.2877044170570424e-01 1.8288594763335594e-02  0.0000000000000000e+00 9.4450232271541412e-01 8.6937786428580757e-02  0.0000000000000000e+00 2.5503281733790689e-01 7.6969199682329010e-03  0.0000000000000000e+00 6.9933037524292496e-01 1.2468771522337179e-02  0.0000000000000000e+00 7.6889227369923796e-01 1.4905700438536314e-02  0.0000000000000000e+00 9.4271043809657185e-01 9.2641764301669385e-02  0.0000000000000000e+00 9.4580057830494135e-01 8.2213798998943793e-02  0.0000000000000000e+00 5.3846349268403793e-01 9.2558377001797591e-03  0.0000000000000000e+00 2.5832512934968493e-01 7.6822366324463924e-03  0.0000000000000000e+00 8.9936360634729151e-01 2.6663899777721569e-02  0.0000000000000000e+00 9.4291229634428253e-01 4.6292841876698534e-02  0.0000000000000000e+00 2.4441813045554206e-01 7.7498261964636297e-03  0.0000000000000000e+00 7.5910060422485992e-01 1.4512395673713697e-02  0.0000000000000000e+00 7.1522223596347911e-01 1.2913732698487085e-02  0.0000000000000000e+00 9.4206772704304809e-01 9.4556490164216411e-02  0.0000000000000000e+00 3.1852605264252759e-01 7.6088146868788734e-03  0.0000000000000000e+00 4.1562878465761371e-01 8.0230810160742162e-03  0.0000000000000000e+00 9.4387238622208003e-01 8.8998124463821507e-02  0.0000000000000000e+00 9.4810327903175196e-01 5.9643490066906828e-02  0.0000000000000000e+00 5.9205209175132223e-01 1.0064687919830444e-02  0.0000000000000000e+00 2.4779107472756534e-01 7.7316723826943981e-03  0.0000000000000000e+00 8.7203790960444549e-01 2.2397147690482126e-02  0.0000000000000000e+00 9.4751425298680791e-01 7.4138904024870070e-02  0.0000000000000000e+00 9.1490942654999363e-01 3.0396741741010286e-02  0.0000000000000000e+00 2.4178848069590991e-01 7.7653654933641202e-03  0.0000000000000000e+00 2.6969107427134897e-01 7.6413610077437147e-03  0.0000000000000000e+00 7.9959739861977475e-01 1.6458016925107261e-02  0.0000000000000000e+00 4.4841977493110308e-01 8.2885011205696569e-03  0.0000000000000000e+00 9.4710584648682161e-01 7.6336832459762263e-02  0.0000000000000000e+00 9.4589160731071886e-01 5.1315264592722995e-02  0.0000000000000000e+00 9.1699142432218717e-01 3.1035887399833328e-02  0.0000000000000000e+00 2.9372050312748893e-01 7.5937318638236379e-03  0.0000000000000000e+00 8.6906935639921201e-01 2.2016216193624389e-02  0.0000000000000000e+00 5.0188728675564775e-01 8.8065121898239489e-03  0.0000000000000000e+00 9.3751244367263742e-01 4.0894214913301238e-02  0.0000000000