<?xml version="1.0"?>
<VTKFile type="UnstructuredGrid"  version="0.1"  >
<UnstructuredGrid>
<Piece  NumberOfPoints="4940" NumberOfCells="9650">
<Points>
<DataArray  type="Float64"  NumberOfComponents="3"  format="ascii">500 250 0  0 250 0  250 500 0  250 0 0  256.8885856082646 499.9050767557906 0  263.7719401218049 499.6203791065173 0  270.6448364229772 499.1461232471188 0  277.5020553257866 498.4826693209355 0  284.3383895508592 497.6305211460281 0  291.1486476865662 496.5903258312597 0  297.9276581259182 495.3628732847843 0  304.6702729675493 493.9490956196674 0  311.3713719748657 492.3500664368026 0  318.0258664141369 490.5670000199653 0  324.6287029687753 488.6012504015818 0  331.1748675330201 486.4543103455647 0  337.6593890460416 484.1278102064655 0  344.0773432429536 481.6235166997244 0  350.4238564271474 478.9433315480048 0  356.694109139292 476.0892900492477 0  362.88333985546 473.0635595140469 0  368.9868485575419 469.8684376402048 0  375.0000003153078 466.5063507640667 0  380.9182288257928 462.9798520074548 0  386.7370398729688 459.2916193419558 0  392.4520147244077 455.444453565817 0  398.0588135356345 451.4412761437442 0  403.5531785622926 447.285127045646 0  408.9309374414144 442.9791624087773 0  414.1880064015299 438.5266521049243 0  419.3203932989752 433.9309773069245 0  424.324200661095 429.1956279150535 0  429.1956286596235 424.3241998957182 0  433.9309780058756 419.3203925397119 0  438.5266527445345 414.1880056671062 0  442.9791630130591 408.9309367076756 0  447.2851276060475 403.5531778422888 0  451.4412766621026 398.0588128303826 0  455.4444540361634 392.4520140460735 0  459.2916197786263 386.7370392045948 0  462.9798524073514 380.9182281752347 0  466.5063511234856 374.9999996927758 0  469.8684379657123 368.9868479560565 0  473.0635598144817 362.8833392617846 0  476.0892903190255 356.6941085676214 0  478.9433317963513 350.4238558609745 0  481.6235169154735 344.0773427117675 0  484.12781039012 337.6593885555221 0  486.4543105028062 331.1748670749914 0  488.601250531677 324.6287025528375 0  490.5670001317469 318.0258660188321 0  492.3500665291326 311.3713716102628 0  493.949095695951 304.6702726271575 0  495.3628733416623 297.9276578347343 0  496.5903258712341 291.1486474470129 0  497.6305211749058 284.3383893426084 0  498.4826693388848 277.502055163614 0  499.1461232580606 270.6448362909296 0  499.6203791109319 263.7719400417897 0  499.9050767571306 256.8885855596534 0  499.9050767559877 243.1114143988867 0  499.6203791069493 236.2280598860241 0  499.1461232485393 229.3551635941651 0  498.4826693235677 222.4979446979962 0  497.6305211491849 215.6616104719064 0  496.5903258357701 208.8513523404629 0  495.3628732906988 202.0723419043604 0  493.9490956264813 195.3297270628552 0  492.3500664487791 188.6286280724281 0  490.5670000344809 181.9741336371959 0  488.6012504175981 175.3712970824318 0  486.4543103623226 168.8251325157939 0  484.1278102222298 162.3406109960628 0  481.6235167152198 155.9226567951971 0  478.9433315621651 149.5761436051346 0  476.0892900516498 143.3058908657982 0  473.063559513628 137.1166601437124 0  469.8684376406648 131.0131514433083 0  466.5063507675389 124.9999996907064 0  462.9798520124137 119.0817711822745 0  459.2916193464549 113.2629601339176 0  455.4444535642773 107.5479852733717 0  451.4412761528674 101.9411864767781 0  447.2851270583545 96.44682145403524 0  442.9791624165781 91.06906256805769 0  438.5266521117469 85.81199360630404 0  433.9309773156125 80.67960671046254 0  429.1956279150353 75.67579933888632 0  424.3241998888952 70.80437133373906 0  419.3203925223282 66.06902197812161 0  414.1880056411937 61.47334723289828 0  408.9309366751728 57.0208369601728 0  403.5531778009394 52.71487236176898 0  398.058812796452 48.55872331295853 0  392.4520140187753 44.55554594490843 0  386.7370391799677 40.70838020528396 0  380.9182281475119 37.02014757560744 0  374.9999996718656 33.49364886444181 0  368.9868479340393 30.13156202237255 0  362.8833392380029 26.93644017348339 0  356.6941085456942 23.91070967062674 0  350.4238558420009 21.0566681953261 0  344.0773426899492 18.37648307566465 0  337.6593885328982 15.87218960140942 0  331.1748670549786 13.54568949032341 0  324.6287025315056 11.39874946165088 0  318.0258660010876 9.432999863235466 0  311.3713716017894 7.649933468721599 0  304.6702726190621 6.050904302234756 0  297.9276578269805 4.637126656823085 0  291.148647441857 3.409674127905504 0  284.3383893425031 2.369478825079682 0  277.502055159398 1.517330660648639 0  270.6448362875833 0.853876741662134 0  263.7719400401456 0.3796208889774277 0  256.8885855592052 0.09492324285704967 0  243.1114143979462 0.09492324403817065 0  236.2280598850882 0.3796208931023841 0  229.3551635938215 0.8538767514891958 0  222.4979446968584 1.517330676558146 0  215.6616104703111 2.369478851036291 0  208.8513523382973 3.409674164591252 0  202.0723419066374 4.637126708856528 0  195.3297270659513 6.050904372824903 0  188.628628074828 7.649933550613184 0  181.9741336377093 9.432999965373938 0  175.3712970793675 11.39874958336037 0  168.8251325057572 13.54568964112298 0  162.340610986655 15.87218978129263 0  155.9226567874317 18.37648328793418 0  149.576143602509 21.05666843898663 0  143.3058908718157 23.91070994551046 0  137.1166601505524 26.93644048291054 0  131.0131514451933 30.13156235831508 0  124.9999996848412 33.49364923584736 0  119.0817711715717 37.0201479941652 0  113.2629601211624 40.70838066187849 0  107.5479852622251 44.55554644345162 0  101.9411864693332 48.55872385260452 0  96.44682143286516 52.71487295812284 0  91.06906254351222 57.02083760363669 0  85.81199358272519 61.4733479087879 0  80.67960667988106 66.06902271253972 0  75.67579930062769 70.80437212218331 0  70.80437129287643 75.67580015310926 0  66.06902193673014 80.67960752263491 0  61.47334718684866 85.81199441168215 0  57.02083692524275 91.0690633672404 0  52.71487232786438 96.44682224262129 0  48.55872328070024 101.941187247437 0  44.55554591578033 107.5479860232332 0  40.7083801742321 113.2629608675606 0  37.02014754791168 119.0817718975441 0  33.49364883372994 125.000000381329 0  30.13156199866361 131.0131521097709 0  26.9364401549829 137.1166607985551 0  23.91070965524918 143.3058914868915 0  21.05666818346614 149.576144185037 0  18.37648306853811 155.9226573275967 0  15.8721895918909 162.3406114925245 0  13.54568948170046 168.8251329701392 0  11.39874945301878 175.3712974960928 0  9.432999857087736 181.9741340206533 0  7.649933466342702 188.6286284076045 0  6.050904301250966 195.3297273853278 0  4.637126656808988 202.0723421730917 0  3.409674127767772 208.8513525589684 0  2.369478824521138 215.6616106615248 0  1.517330660909465 222.4979448382452 0  0.8538767414496533 229.355163714981 0  0.3796208887135322 236.2280599646376 0  0.09492324266324204 243.1114144478261 0  0.0949232442452228 256.8885856095658 0  0.3796208935834784 263.7719401236316 0  0.8538767530323526 270.6448364248016 0  1.517330679476544 277.5020553295092 0  2.369478854618649 284.3383895555228 0  3.409674170191892 291.1486476952655 0  4.6371267162381 297.9276581311522 0  6.050904381420935 304.6702729724059 0  7.649933562385399 311.3713719716595 0  9.43299997979841 318.0258664133013 0  11.3987495994252 324.6287029719946 0  13.54568965885832 331.174867545904 0  15.87218979367188 337.6593890464085 0  18.37648329843151 344.0773432384132 0  21.05666844777872 350.423856417535 0  23.91070995156048 356.6941091410045 0  26.93644048988043 362.8833398632205 0  30.13156235982007 368.9868485575877 0  33.49364924138357 375.0000003247478 0  37.0201480006036 380.9182288389023 0  40.70838066758398 386.7370398875706 0  44.55554644477201 392.4520147396792 0  48.55872386086904 398.0588135419111 0  52.71487295981296 403.5531785693063 0  57.02083760525949 408.9309374584583 0  61.47334790862246 414.1880064170849 0  66.06902271205095 419.320393319588 0  70.80437211216579 424.3242006890749 0  75.67580013809859 429.195628692521 0  80.6796075127923 433.930978054209 0  85.81199439754931 438.5266528008431 0  91.06906334717917 442.9791630582355 0  96.44682221438322 447.2851276501571 0  101.9411872243843 451.441276702356 0  107.5479859945825 455.4444540643537 0  113.2629608446994 459.2916198108319 0  119.0817718768376 462.9798524393601 0  125.0000003647644 466.5063511567065 0  131.0131521012763 469.8684379967393 0  137.1166607840049 473.0635598376539 0  143.3058914748804 476.0892903390826 0  149.5761441732679 478.9433318113714 0  155.9226573130112 481.6235169255377 0  162.3406114779862 484.1278104026658 0  168.8251329570439 486.4543105138039 0  175.3712974805475 488.601250542119 0  181.9741340135204 490.5670001408953 0  188.6286284005059 492.3500665318597 0  195.3297273788229 493.9490956972913 0  202.0723421640089 495.3628733414168 0  208.8513525529672 496.5903258712308 0  215.6616106544547 497.6305211744985 0  222.4979448327038 498.4826693384772 0  229.3551637102845 499.1461232581612 0  236.2280599621369 499.6203791111485 0  243.1114144470173 499.9050767573145 0  155.2373389820306 474.8197567317462 0  25.36256300907667 153.9152755065208 0  432.3709625126712 412.6214396304305 0  6.013151705810699 246.637913163471 0  246.6379131630491 493.986848294322 0  338.6995838441862 22.68244767887072 0  477.3175523131281 338.6995838660569 0  493.9868482700757 246.6379131399102 0  246.6201155078769 6.218451882810491 0  417.6179310263282 72.7156044707053 0  102.2232990934413 445.0100869616822 0  63.66330858966404 92.20354579482142 0  391.3105220491464 50.73522820883105 0  72.79295043967942 418.0702734974704 0  448.290574428537 108.25674339002 0  402.4604651193511 440.7462829841712 0  97.55317348421397 59.11376320116034 0  136.7376477664901 33.58246472647134 0  363.3288394375288 465.6947312928271 0  44.0678766556007 381.0860953771871 0  469.6905266180034 142.3890690100806 0  22.68244791668644 338.6995843487432 0  338.699584349159 477.317552078365 0  173.389488083762 18.6681884918202 0  483.4809734778481 179.7121987795732 0  13.50237455842738 306.4709525540879 0  305.9825168523021 487.24416992
[...]
<PointData  Vectors="f_12"> 
<DataArray  type="Float64"  Name="f_12"  NumberOfComponents="3" format="ascii">0.0000000000000000e+00 1.0217398910320818e-01 1.2473599180054388e-02  0.0000000000000000e+00 4.8591143247484293e-02 2.6646908673414939e-02  0.0000000000000000e+00 5.2511398844115964e-01 9.1342167353266317e-03  0.0000000000000000e+00 1.5972993105333132e-02 1.8440253487078878e-01  0.0000000000000000e+00 5.2732088633916607e-01 9.1614389792437217e-03  0.0000000000000000e+00 5.2854760212137519e-01 9.1769026625504371e-03  0.0000000000000000e+00 5.2932181540897694e-01 9.1863043327261654e-03  0.0000000000000000e+00 5.2926082990020695e-01 9.1861820789893404e-03  0.0000000000000000e+00 5.2854361603157918e-01 9.1774000918130663e-03  0.0000000000000000e+00 5.2713993279582438e-01 9.1595799603284515e-03  0.0000000000000000e+00 5.2508197227810960e-01 9.1336452434685848e-03  0.0000000000000000e+00 5.2244953582035791e-01 9.1009232463770441e-03  0.0000000000000000e+00 5.1922070988087143e-01 9.0612436346852038e-03  0.0000000000000000e+00 5.1536212585357088e-01 9.0143313904445903e-03  0.0000000000000000e+00 5.1060637143252507e-01 8.9579154638432228e-03  0.0000000000000000e+00 5.0593090081717018e-01 8.9023310436189117e-03  0.0000000000000000e+00 4.9992013840144223e-01 8.8336200367886072e-03  0.0000000000000000e+00 4.9397286433858595e-01 8.7677596401002714e-03  0.0000000000000000e+00 4.8747233300523507e-01 8.6981347308055755e-03  0.0000000000000000e+00 4.8058006842104023e-01 8.6253260541633934e-03  0.0000000000000000e+00 4.7344001202339381e-01 8.5526939000422492e-03  0.0000000000000000e+00 4.6578233370965361e-01 8.4807776993320941e-03  0.0000000000000000e+00 4.5779919705125321e-01 8.4095359578619869e-03  0.0000000000000000e+00 4.4973098823074520e-01 8.3398351029836792e-03  0.0000000000000000e+00 4.4123916040496980e-01 8.2702008177227195e-03  0.0000000000000000e+00 4.3217393010211425e-01 8.1998574831037545e-03  0.0000000000000000e+00 4.2249018496457180e-01 8.1277118586426632e-03  0.0000000000000000e+00 4.1277616379653581e-01 8.0588438135424413e-03  0.0000000000000000e+00 4.0280457820735355e-01 7.9927521768432715e-03  0.0000000000000000e+00 3.9235732199056611e-01 7.9286215080026246e-03  0.0000000000000000e+00 3.8208257912379717e-01 7.8724594724898077e-03  0.0000000000000000e+00 3.7169297971829779e-01 7.8231579839389744e-03  0.0000000000000000e+00 3.6120939934272239e-01 7.7810001260476503e-03  0.0000000000000000e+00 3.5067266006632275e-01 7.7442533993520163e-03  0.0000000000000000e+00 3.3966905561756455e-01 7.7126569252028276e-03  0.0000000000000000e+00 3.2852643575211787e-01 7.6874238793694944e-03  0.0000000000000000e+00 3.1743608793929978e-01 7.6673736774975371e-03  0.0000000000000000e+00 3.0625460081613448e-01 7.6570779505963828e-03  0.0000000000000000e+00 2.9514091440123036e-01 7.6600686714906330e-03  0.0000000000000000e+00 2.8435039062222617e-01 7.6747291110902203e-03  0.0000000000000000e+00 2.7376630354143816e-01 7.7005748972949978e-03  0.0000000000000000e+00 2.6300364983859698e-01 7.7380797474767395e-03  0.0000000000000000e+00 2.5209914028149394e-01 7.7862197789006311e-03  0.0000000000000000e+00 2.4145797565048374e-01 7.8484634115687530e-03  0.0000000000000000e+00 2.3106979052956511e-01 7.9270315641138730e-03  0.0000000000000000e+00 2.2099047238459871e-01 8.0218066547895275e-03  0.0000000000000000e+00 2.1120910389254599e-01 8.1343098693925659e-03  0.0000000000000000e+00 2.0166304665755133e-01 8.2669222626032598e-03  0.0000000000000000e+00 1.9208358982358006e-01 8.4191587714503094e-03  0.0000000000000000e+00 1.8279055479833506e-01 8.5905592919032006e-03  0.0000000000000000e+00 1.7391138527708713e-01 8.7859200049095389e-03  0.0000000000000000e+00 1.6542063435878235e-01 9.0044187494248158e-03  0.0000000000000000e+00 1.5727169298084862e-01 9.2512388883251046e-03  0.0000000000000000e+00 1.4927964816808498e-01 9.5286570168942597e-03  0.0000000000000000e+00 1.4152832661627329e-01 9.8354155406323220e-03  0.0000000000000000e+00 1.3414629056424976e-01 1.0174288162047308e-02  0.0000000000000000e+00 1.2711083607032442e-01 1.0548100020535113e-02  0.0000000000000000e+00 1.2044616971466050e-01 1.0961496906787483e-02  0.0000000000000000e+00 1.1405300646237318e-01 1.1405557236350550e-02  0.0000000000000000e+00 1.0805963333445778e-01 1.1892714167265065e-02  0.0000000000000000e+00 9.6547538835353566e-02 1.3052577583696597e-02  0.0000000000000000e+00 9.1325640746597270e-02 1.3701733498036221e-02  0.0000000000000000e+00 8.6490118159321977e-02 1.4406763475161904e-02  0.0000000000000000e+00 8.1789557499602220e-02 1.5174511005817650e-02  0.0000000000000000e+00 7.7335263675750596e-02 1.6023196938987259e-02  0.0000000000000000e+00 7.3084068728159146e-02 1.6936635496953689e-02  0.0000000000000000e+00 6.9150746825859200e-02 1.7929325555895510e-02  0.0000000000000000e+00 6.5477418257245373e-02 1.8996486178374038e-02  0.0000000000000000e+00 6.2007571029098242e-02 2.0155065652171306e-02  0.0000000000000000e+00 5.8710491016541883e-02 2.1417055165618107e-02  0.0000000000000000e+00 5.5574655043631828e-02 2.2784957397944897e-02  0.0000000000000000e+00 5.2673758484493904e-02 2.4252706558342763e-02  0.0000000000000000e+00 4.9972681109721764e-02 2.5824024260827423e-02  0.0000000000000000e+00 4.7457371912727378e-02 2.7510220678071313e-02  0.0000000000000000e+00 4.5076847232712519e-02 2.9331099242193369e-02  0.0000000000000000e+00 4.2825121797673456e-02 3.1301053964659098e-02  0.0000000000000000e+00 4.0710813497007427e-02 3.3412819005034657e-02  0.0000000000000000e+00 3.8758246609955117e-02 3.5656014787507934e-02  0.0000000000000000e+00 3.6959262720967334e-02 3.8029879113833140e-02  0.0000000000000000e+00 3.5283705437721448e-02 4.0554530965465928e-02  0.0000000000000000e+00 3.3693946894388982e-02 4.3266937325110034e-02  0.0000000000000000e+00 3.2206244590857781e-02 4.6161607524472563e-02  0.0000000000000000e+00 3.0808876619745486e-02 4.9246086424307098e-02  0.0000000000000000e+00 2.9526800273857852e-02 5.2469581009640325e-02  0.0000000000000000e+00 2.8351602580465748e-02 5.5833603285971908e-02  0.0000000000000000e+00 2.7269464952164760e-02 5.9347255947734746e-02  0.0000000000000000e+00 2.6259051235926503e-02 6.3043317859972456e-02  0.0000000000000000e+00 2.5308627851806115e-02 6.6956975333779825e-02  0.0000000000000000e+00 2.4414102489832900e-02 7.1074296866548550e-02  0.0000000000000000e+00 2.3586188993425732e-02 7.5376315726567542e-02  0.0000000000000000e+00 2.2829909076988408e-02 7.9795730141893964e-02  0.0000000000000000e+00 2.2144800279862601e-02 8.4300255081472972e-02  0.0000000000000000e+00 2.1519343561365114e-02 8.8914452229730240e-02  0.0000000000000000e+00 2.0947803129332580e-02 9.3603566839928154e-02  0.0000000000000000e+00 2.0423224181390583e-02 9.8377017095892888e-02  0.0000000000000000e+00 1.9924221951434274e-02 1.0337905768025038e-01  0.0000000000000000e+00 1.9461524666265436e-02 1.0852085072572859e-01  0.0000000000000000e+00 1.9046239480450155e-02 1.1363979845109522e-01  0.0000000000000000e+00 1.8661529360850696e-02 1.1886009633494095e-01  0.0000000000000000e+00 1.8312591688059994e-02 1.2410122865989964e-01  0.0000000000000000e+00 1.8010961436484743e-02 1.2909097828629412e-01  0.0000000000000000e+00 1.7743194773517483e-02 1.3402658119100741e-01  0.0000000000000000e+00 1.7501706597881427e-02 1.3881464904058807e-01  0.0000000000000000e+00 1.7284576437186859e-02 1.4351440100405030e-01  0.0000000000000000e+00 1.7088698440147296e-02 1.4808611727796298e-01  0.0000000000000000e+00 1.6911939575180352e-02 1.5254573784944359e-01  0.0000000000000000e+00 1.6753525305088644e-02 1.5683630807118337e-01  0.0000000000000000e+00 1.6613335017539310e-02 1.6091498506638960e-01  0.0000000000000000e+00 1.6487253140478133e-02 1.6482712545813960e-01  0.0000000000000000e+00 1.6374196619320120e-02 1.6852946868574142e-01  0.0000000000000000e+00 1.6277717214690655e-02 1.7190266865097570e-01  0.0000000000000000e+00 1.6197185667351496e-02 1.7491216659840814e-01  0.0000000000000000e+00 1.6132244403048498e-02 1.7752105614160776e-01  0.0000000000000000e+00 1.6076129759999423e-02 1.7985887029400788e-01  0.0000000000000000e+00 1.6032386040330179e-02 1.8176339817750209e-01  0.0000000000000000e+00 1.5997838840713378e-02 1.8331010001705794e-01  0.0000000000000000e+00 1.5963733940135331e-02 1.8490399433811350e-01  0.0000000000000000e+00 1.5937255269880334e-02 1.8595158042401921e-01  0.0000000000000000e+00 1.5950557590900478e-02 1.8546324534657546e-01  0.0000000000000000e+00 1.5959543175169795e-02 1.8502523079876096e-01  0.0000000000000000e+00 1.5975647991083093e-02 1.8426735470552236e-01  0.0000000000000000e+00 1.6003055813778339e-02 1.8306615010526936e-01  0.0000000000000000e+00 1.6040205571498562e-02 1.8143569654888769e-01  0.0000000000000000e+00 1.6084549743302583e-02 1.7955307226079581e-01  0.0000000000000000e+00 1.6139192433912063e-02 1.7730662372929940e-01  0.0000000000000000e+00 1.6191545997169390e-02 1.7518111071201256e-01  0.0000000000000000e+00 1.6273940749844236e-02 1.7212253693734728e-01  0.0000000000000000e+00 1.6361675304413830e-02 1.6900668302931912e-01  0.0000000000000000e+00 1.6461948797450426e-02 1.6569983531268592e-01  0.0000000000000000e+00 1.6565656351583368e-02 1.6234342777647881e-01  0.0000000000000000e+00 1.6684580898483903e-02 1.5875630818530465e-01  0.0000000000000000e+00 1.6822890148813573e-02 1.5490108583119394e-01  0.0000000000000000e+00 1.6969268381063170e-02 1.5104944343675261e-01  0.0000000000000000e+00 1.7126985328898617e-02 1.4713510211839545e-01  0.0000000000000000e+00 1.7297327900146875e-02 1.4316894942502154e-01  0.0000000000000000e+00 1.7483240158514653e-02 1.3913670581333334e-01  0.0000000000000000e+00 1.7689020378173183e-02 1.3500895886922401e-01  0.0000000000000000e+00 1.7914639406957072e-02 1.3080440098047294e-01  0.0000000000000000e+00 1.8157298929916032e-02 1.2659431585812517e-01  0.0000000000000000e+00 1.8421923811716055e-02 1.2235777590010981e-01  0.0000000000000000e+00 1.8711552002121053e-02 1.1808408112764142e-01  0.0000000000000000e+00 1.9026569092291001e-02 1.1381022597968452e-01  0.0000000000000000e+00 1.9366826448061255e-02 1.0956182681982167e-01  0.0000000000000000e+00 1.9730142557561673e-02 1.0538906555031333e-01  0.0000000000000000e+00 2.0115034597039009e-02 1.0131522975856605e-01  0.0000000000000000e+00 2.0519541429894993e-02 9.7366339408537506e-02  0.0000000000000000e+00 2.0943616858202389e-02 9.3545862874178695e-02  0.0000000000000000e+00 2.1387193928013842e-02 8.9855934680083530e-02  0.0000000000000000e+00 2.1856951588777360e-02 8.6253916147234877e-02  0.0000000000000000e+00 2.2360886893778600e-02 8.2721484416386187e-02  0.0000000000000000e+00 2.2907975536116818e-02 7.9207620795260336e-02  0.0000000000000000e+00 2.3497179411125828e-02 7.5758625236742663e-02  0.0000000000000000e+00 2.4128780595448103e-02 7.2390233204953330e-02  0.0000000000000000e+00 2.4797372542001882e-02 6.9134353352721833e-02  0.0000000000000000e+00 2.5498621872510768e-02 6.6012911861773119e-02  0.0000000000000000e+00 2.6228060980038166e-02 6.3046761210714772e-02  0.0000000000000000e+00 2.7002515260994609e-02 6.0169466357313274e-02  0.0000000000000000e+00 2.7811761693883982e-02 5.7420844134860635e-02  0.0000000000000000e+00 2.8656621108919204e-02 5.4809635452466858e-02  0.0000000000000000e+00 2.9570843304905482e-02 5.2234746250219878e-02  0.0000000000000000e+00 3.0567423430373546e-02 4.9710338870847665e-02  0.0000000000000000e+00 3.1638702945980444e-02 4.7259655706019831e-02  0.0000000000000000e+00 3.2748422861071533e-02 4.4956380339653546e-02  0.0000000000000000e+00 3.3955032188080755e-02 4.2699129053477579e-02  0.0000000000000000e+00 3.5195862736048231e-02 4.0597796224302436e-02  0.0000000000000000e+00 3.6498312169976191e-02 3.8582955024637954e-02  0.0000000000000000e+00 3.7876547403300959e-02 3.6685502138960727e-02  0.0000000000000000e+00 3.9369481104375603e-02 3.4822414987864460e-02  0.0000000000000000e+00 4.0997863868106645e-02 3.3018833438365237e-02  0.0000000000000000e+00 4.2744012061423510e-02 3.1290718220165388e-02  0.0000000000000000e+00 4.4592389875607916e-02 2.9652350233571090e-02  0.0000000000000000e+00 4.6536350771026858e-02 2.8105622119048872e-02  0.0000000000000000e+00 5.0780788033750954e-02 2.5260046301157937e-02  0.0000000000000000e+00 5.3137995416426727e-02 2.3933764032458928e-02  0.0000000000000000e+00 5.5696303037079994e-02 2.2669315819226075e-02  0.0000000000000000e+00 5.8445505523766601e-02 2.1464632964543096e-02  0.0000000000000000e+00 6.1366644767740786e-02 2.0332803623281912e-02  0.0000000000000000e+00 6.4450238252815553e-02 1.9272174541241874e-02  0.0000000000000000e+00 6.7724796895650849e-02 1.8278170009211812e-02  0.0000000000000000e+00 7.1250905699713707e-02 1.7338512167622774e-02  0.0000000000000000e+00 7.5079520249124440e-02 1.6449682737609890e-02  0.0000000000000000e+00 7.9208377371233277e-02 1.5612525102263549e-02  0.0000000000000000e+00 8.3596102327548549e-02 1.4835306247660635e-02  0.0000000000000000e+00 8.8213049005024108e-02 1.4111906405489630e-02  0.0000000000000000e+00 9.3115010147349242e-02 1.3443412659670259e-02  0.0000000000000000e+00 9.8412367688244740e-02 1.2818787638048420e-02  0.0000000000000000e+00 1.0410964521657358e-01 1.2237489672359030e-02  0.0000000000000000e+00 1.1021063241950316e-01 1.1700584207127423e-02  0.0000000000000000e+00 1.1664559164877955e-01 1.1206897200738442e-02  0.0000000000000000e+00 1.2338446412166068e-01 1.0753030137879507e-02  0.0000000000000000e+00 1.3062046340423175e-01 1.0342601706217942e-02  0.0000000000000000e+00 1.3835458130427777e-01 9.9627881272698858e-03  0.0000000000000000e+00 1.4661039368030998e-01 9.6201699426701395e-03  0.0000000000000000e+00 1.5523672937251279e-01 9.3103649200223619e-03  0.0000000000000000e+00 1.6423189246911765e-01 9.0314193365872830e-03  0.0000000000000000e+00 1.7374750948660159e-01 8.7843244019520112e-03  0.0000000000000000e+00 1.8384752860678699e-01 8.5663618657443596e-03  0.0000000000000000e+00 1.9449840822365799e-01 8.3757576522078721e-03  0.0000000000000000e+00 2.0556204167245279e-01 8.2089347623579938e-03  0.0000000000000000e+00 2.1687799795684384e-01 8.0662922663385598e-03  0.0000000000000000e+00 2.2869282266046315e-01 7.9489659953290281e-03  0.0000000000000000e+00 2.4099652646373726e-01 7.8535281659509824e-03  0.0000000000000000e+00 2.5376906381450115e-01 7.7806397845243411e-03  0.0000000000000000e+00 2.6682831987861583e-01 7.7260370440307884e-03  0.0000000000000000e+00 2.8000663547895677e-01 7.6871985447999050e-03  0.0000000000000000e+00 2.9340533139895653e-01 7.6661528291607373e-03  0.0000000000000000e+00 3.0717189265892686e-01 7.6636356524193957e-03  0.0000000000000000e+00 3.2105097756223944e-01 7.6775820836013815e-03  0.0000000000000000e+00 3.3496171316604112e-01 7.7056171813922620e-03  0.0000000000000000e+00 3.4890987841499521e-01 7.7429619600859955e-03  0.0000000000000000e+00 3.6249815165324717e-01 7.7896240548705475e-03  0.0000000000000000e+00 3.7585909283902424e-01 7.8484216790401691e-03  0.0000000000000000e+00 3.8918727345417842e-01 7.9178975113142810e-03  0.0000000000000000e+00 4.0231364988363083e-01 7.9962244627847269e-03  0.0000000000000000e+00 4.1523702000704493e-01 8.0832019733719628e-03  0.0000000000000000e+00 4.2740785752532490e-01 8.1691615195476890e-03  0.0000000000000000e+00 4.3912147693844822e-01 8.2593964386753413e-03  0.0000000000000000e+00 4.5006788884909810e-01 8.3491611962499008e-03  0.0000000000000000e+00 4.6029900660920520e-01 8.4357507870915678e-03  0.0000000000000000e+00 4.6995481511514337e-01 8.5219772757468507e-03  0.0000000000000000e+00 4.7890796992922963e-01 8.6109840024714574e-03  0.0000000000000000e+00 4.8726547095970135e-01 8.6985079139097945e-03  0.0000000000000000e+00 4.9516384341744163e-01 8.7834780457522656e-03  0.0000000000000000e+00 5.0220128996444868e-01 8.8624458752077050e-03  0.0000000000000000e+00 5.0837118975030260e-01 8.9347441647821095e-03  0.0000000000000000e+00 5.1376230092828690e-01 8.9979163856987107e-03  0.0000000000000000e+00 5.1833000806365004e-01 9.0520851251741589e-03  0.0000000000000000e+00 5.2198594497182660e-01 9.0963083192216500e-03  0.0000000000000000e+00 4.0684896059486098e-01 8.0276383630527234e-03  0.0000000000000000e+00 2.8203622052422384e-02 5.6208487180932666e-02  0.0000000000000000e+00 3.4259369737683032e-01 7.7222498113428528e-03  0.0000000000000000e+00 4.7722141797252877e-02 2.7257325857273498e-02  0.0000000000000000e+00 5.2065821663741840e-01 9.0831311925904639e-03  0.0000000000000000e+00 1.7464025946515419e-02 1.3978053246175398e-01  0.0000000000000000e+00 2.0528708483556951e-01 8.2160733417129071e-03  0.0000000000000000e+00 9.9018989108726266e-02 1.2779299992433291e-02  0.0000000000000000e+00 1.6027895632786837e-02 1.8242712260113325e-01  0.0000000000000000e+00 2.4064365440445792e-02 7.2864802327970879e-02  0.0000000000000000e+00 2.8522538567079542e-01 7.6778145625735050e-03  0.0000000000000000e+00 2.1260090783343746e-02 9.0956021961455844e-02  0.0000000000000000e+00 2.0697507497287954e-02 9.5882367818136457e-02  0.0000000000000000e+00 2.1096176290101726e-01 8.1382018857588598e-03  0.0000000000000000e+00 3.1536540643440678e-02 4.7604130040944187e-02  0.0000000000000000e+00 4.0590491880336332e-01 8.0153887289624425e-03  0.0000000000000000e+00 1.8632309882144281e-02 1.1934244394521434e-01  0.0000000000000000e+00 1.7114550949471168e-02 1.4764039850096541e-01  0.0000000000000000e+00 4.6650529387331641e-01 8.4908836419025410e-03  0.0000000000000000e+00 1.4281984954488919e-01 9.7727238660082049e-03  0.0000000000000000e+00 4.1714045989257521e-02 3.2380038396436807e-02  0.0000000000000000e+00 9.5761623683914235e-02 1.3121230123168605e-02  0.0000000000000000e+00 4.9434167312185123e-01 8.7747810914655649e-03  0.0000000000000000e+00 1.6397046277525598e-02 1.6814178401989949e-01  0.0000000000000000e+00 5.6729990529930448e-02 2.2261334473445017e-02  0.0000000000000000e+00 7.3333684324579193e-02 1.6846653802058058e-02  0.0000000000000000e+00 5.1800630840128559e-01 9.0501647820515063e-03  0.0000000000000000e+00 4.7198253220008668e-01 8.5456479017147861e-03  0.0000000000000000e+00 3.4711253882488580e-02 4.1416498513560412e-02  0.0000000000000000e+00 1.6499392846534736e-02 1.6475363951595801e-01  0.0000000000000000e+00 1.5254289420629000e-01 9.4119494846559276e-03  0.0000000000000000e+00 2.7950332338543316e-01 7.6869898424267811e-03  0.0000000000000000e+00 1.6078230149323181e-02 1.8018183957361431e-01  0.0000000000000000e+00 7.0688857030508909e-02 1.7525063409178924e-02  0.0000000000000000e+00 6.0055390484657051e-02 2.0831424725082037e-02  0.0000000000000000e+00 5.2605018525391378e-01 9.1494595313994145e-03  0.0000000000000000e+00 1.8933922647815009e-02 1.1522506661742697e-01  0.0000000000000000e+00 2.4566670076114096e-02 7.0270765439624988e-02  0.0000000000000000e+00 5.0267469271109277e-01 8.8715997914982202e-03  0.0000000000000000e+00 3.5364248796078096e-01 7.7598196840793672e-03  0.0000000000000000e+00 4.0529735346464736e-02 3.3533716510055316e-02  0.0000000000000000e+00 1.6172761574277550e-02 1.7634436279573809e-01  0.0000000000000000e+00 1.2400274048378196e-01 1.0735362462082332e-02  0.0000000000000000e+00 4.3315199047485259e-01 8.2107313384534916e-03  0.0000000000000000e+00 1.7730971666204856e-01 8.7083527302803734e-03  0.0000000000000000e+00 1.6006019790577905e-02 1.8332260471546336e-01  0.0000000000000000e+00 1.6900226332199932e-02 1.5307463814491085e-01  0.0000000000000000e+00 8.3813303430180938e-02 1.4830735879179000e-02  0.0000000000000000e+00 2.6789177629712290e-02 6.1075627364040222e-02  0.0000000000000000e+00 4.4243441898456964e-01 8.2883640867248871e-03  0.0000000000000000e+00 3.0942627860614003e-01 7.6613260802922290e-03  0.0000000000000000e+00 1.7884316710468190e-01 8.6696636314343867e-03  0.0000000000000000e+00 1.7880188276659312e-02 1.3158445616920458e-01  0.0000000000000000e+00 1.2037284848847958e-01 1.0949124929180203e-02  0.0000000000000000e+00 3.1234667216219633e-02 4.8183576322562760e-02  0.0000000000000000e+00 2.4534979048519448e-01 7.8250208714700630e-03  0.0000000000