<?xml version="1.0"?>
<VTKFile type="UnstructuredGrid"  version="0.1"  >
<UnstructuredGrid>
<Piece  NumberOfPoints="4940" NumberOfCells="9650">
<Points>
<DataArray  type="Float64"  NumberOfComponents="3"  format="ascii">500 250 0  0 250 0  250 500 0  250 0 0  256.8885856082646 499.9050767557906 0  263.7719401218049 499.6203791065173 0  270.6448364229772 499.1461232471188 0  277.5020553257866 498.4826693209355 0  284.3383895508592 497.6305211460281 0  291.1486476865662 496.5903258312597 0  297.9276581259182 495.3628732847843 0  304.6702729675493 493.9490956196674 0  311.3713719748657 492.3500664368026 0  318.0258664141369 490.5670000199653 0  324.6287029687753 488.6012504015818 0  331.1748675330201 486.4543103455647 0  337.6593890460416 484.1278102064655 0  344.0773432429536 481.6235166997244 0  350.4238564271474 478.9433315480048 0  356.694109139292 476.0892900492477 0  362.88333985546 473.0635595140469 0  368.9868485575419 469.8684376402048 0  375.0000003153078 466.5063507640667 0  380.9182288257928 462.9798520074548 0  386.7370398729688 459.2916193419558 0  392.4520147244077 455.444453565817 0  398.0588135356345 451.4412761437442 0  403.5531785622926 447.285127045646 0  408.9309374414144 442.9791624087773 0  414.1880064015299 438.5266521049243 0  419.3203932989752 433.9309773069245 0  424.324200661095 429.1956279150535 0  429.1956286596235 424.3241998957182 0  433.9309780058756 419.3203925397119 0  438.5266527445345 414.1880056671062 0  442.9791630130591 408.9309367076756 0  447.2851276060475 403.5531778422888 0  451.4412766621026 398.0588128303826 0  455.4444540361634 392.4520140460735 0  459.2916197786263 386.7370392045948 0  462.9798524073514 380.9182281752347 0  466.5063511234856 374.9999996927758 0  469.8684379657123 368.9868479560565 0  473.0635598144817 362.8833392617846 0  476.0892903190255 356.6941085676214 0  478.9433317963513 350.4238558609745 0  481.6235169154735 344.0773427117675 0  484.12781039012 337.6593885555221 0  486.4543105028062 331.1748670749914 0  488.601250531677 324.6287025528375 0  490.5670001317469 318.0258660188321 0  492.3500665291326 311.3713716102628 0  493.949095695951 304.6702726271575 0  495.3628733416623 297.9276578347343 0  496.5903258712341 291.1486474470129 0  497.6305211749058 284.3383893426084 0  498.4826693388848 277.502055163614 0  499.1461232580606 270.6448362909296 0  499.6203791109319 263.7719400417897 0  499.9050767571306 256.8885855596534 0  499.9050767559877 243.1114143988867 0  499.6203791069493 236.2280598860241 0  499.1461232485393 229.3551635941651 0  498.4826693235677 222.4979446979962 0  497.6305211491849 215.6616104719064 0  496.5903258357701 208.8513523404629 0  495.3628732906988 202.0723419043604 0  493.9490956264813 195.3297270628552 0  492.3500664487791 188.6286280724281 0  490.5670000344809 181.9741336371959 0  488.6012504175981 175.3712970824318 0  486.4543103623226 168.8251325157939 0  484.1278102222298 162.3406109960628 0  481.6235167152198 155.9226567951971 0  478.9433315621651 149.5761436051346 0  476.0892900516498 143.3058908657982 0  473.063559513628 137.1166601437124 0  469.8684376406648 131.0131514433083 0  466.5063507675389 124.9999996907064 0  462.9798520124137 119.0817711822745 0  459.2916193464549 113.2629601339176 0  455.4444535642773 107.5479852733717 0  451.4412761528674 101.9411864767781 0  447.2851270583545 96.44682145403524 0  442.9791624165781 91.06906256805769 0  438.5266521117469 85.81199360630404 0  433.9309773156125 80.67960671046254 0  429.1956279150353 75.67579933888632 0  424.3241998888952 70.80437133373906 0  419.3203925223282 66.06902197812161 0  414.1880056411937 61.47334723289828 0  408.9309366751728 57.0208369601728 0  403.5531778009394 52.71487236176898 0  398.058812796452 48.55872331295853 0  392.4520140187753 44.55554594490843 0  386.7370391799677 40.70838020528396 0  380.9182281475119 37.02014757560744 0  374.9999996718656 33.49364886444181 0  368.9868479340393 30.13156202237255 0  362.8833392380029 26.93644017348339 0  356.6941085456942 23.91070967062674 0  350.4238558420009 21.0566681953261 0  344.0773426899492 18.37648307566465 0  337.6593885328982 15.87218960140942 0  331.1748670549786 13.54568949032341 0  324.6287025315056 11.39874946165088 0  318.0258660010876 9.432999863235466 0  311.3713716017894 7.649933468721599 0  304.6702726190621 6.050904302234756 0  297.9276578269805 4.637126656823085 0  291.148647441857 3.409674127905504 0  284.3383893425031 2.369478825079682 0  277.502055159398 1.517330660648639 0  270.6448362875833 0.853876741662134 0  263.7719400401456 0.3796208889774277 0  256.8885855592052 0.09492324285704967 0  243.1114143979462 0.09492324403817065 0  236.2280598850882 0.3796208931023841 0  229.3551635938215 0.8538767514891958 0  222.4979446968584 1.517330676558146 0  215.6616104703111 2.369478851036291 0  208.8513523382973 3.409674164591252 0  202.0723419066374 4.637126708856528 0  195.3297270659513 6.050904372824903 0  188.628628074828 7.649933550613184 0  181.9741336377093 9.432999965373938 0  175.3712970793675 11.39874958336037 0  168.8251325057572 13.54568964112298 0  162.340610986655 15.87218978129263 0  155.9226567874317 18.37648328793418 0  149.576143602509 21.05666843898663 0  143.3058908718157 23.91070994551046 0  137.1166601505524 26.93644048291054 0  131.0131514451933 30.13156235831508 0  124.9999996848412 33.49364923584736 0  119.0817711715717 37.0201479941652 0  113.2629601211624 40.70838066187849 0  107.5479852622251 44.55554644345162 0  101.9411864693332 48.55872385260452 0  96.44682143286516 52.71487295812284 0  91.06906254351222 57.02083760363669 0  85.81199358272519 61.4733479087879 0  80.67960667988106 66.06902271253972 0  75.67579930062769 70.80437212218331 0  70.80437129287643 75.67580015310926 0  66.06902193673014 80.67960752263491 0  61.47334718684866 85.81199441168215 0  57.02083692524275 91.0690633672404 0  52.71487232786438 96.44682224262129 0  48.55872328070024 101.941187247437 0  44.55554591578033 107.5479860232332 0  40.7083801742321 113.2629608675606 0  37.02014754791168 119.0817718975441 0  33.49364883372994 125.000000381329 0  30.13156199866361 131.0131521097709 0  26.9364401549829 137.1166607985551 0  23.91070965524918 143.3058914868915 0  21.05666818346614 149.576144185037 0  18.37648306853811 155.9226573275967 0  15.8721895918909 162.3406114925245 0  13.54568948170046 168.8251329701392 0  11.39874945301878 175.3712974960928 0  9.432999857087736 181.9741340206533 0  7.649933466342702 188.6286284076045 0  6.050904301250966 195.3297273853278 0  4.637126656808988 202.0723421730917 0  3.409674127767772 208.8513525589684 0  2.369478824521138 215.6616106615248 0  1.517330660909465 222.4979448382452 0  0.8538767414496533 229.355163714981 0  0.3796208887135322 236.2280599646376 0  0.09492324266324204 243.1114144478261 0  0.0949232442452228 256.8885856095658 0  0.3796208935834784 263.7719401236316 0  0.8538767530323526 270.6448364248016 0  1.517330679476544 277.5020553295092 0  2.369478854618649 284.3383895555228 0  3.409674170191892 291.1486476952655 0  4.6371267162381 297.9276581311522 0  6.050904381420935 304.6702729724059 0  7.649933562385399 311.3713719716595 0  9.43299997979841 318.0258664133013 0  11.3987495994252 324.6287029719946 0  13.54568965885832 331.174867545904 0  15.87218979367188 337.6593890464085 0  18.37648329843151 344.0773432384132 0  21.05666844777872 350.423856417535 0  23.91070995156048 356.6941091410045 0  26.93644048988043 362.8833398632205 0  30.13156235982007 368.9868485575877 0  33.49364924138357 375.0000003247478 0  37.0201480006036 380.9182288389023 0  40.70838066758398 386.7370398875706 0  44.55554644477201 392.4520147396792 0  48.55872386086904 398.0588135419111 0  52.71487295981296 403.5531785693063 0  57.02083760525949 408.9309374584583 0  61.47334790862246 414.1880064170849 0  66.06902271205095 419.320393319588 0  70.80437211216579 424.3242006890749 0  75.67580013809859 429.195628692521 0  80.6796075127923 433.930978054209 0  85.81199439754931 438.5266528008431 0  91.06906334717917 442.9791630582355 0  96.44682221438322 447.2851276501571 0  101.9411872243843 451.441276702356 0  107.5479859945825 455.4444540643537 0  113.2629608446994 459.2916198108319 0  119.0817718768376 462.9798524393601 0  125.0000003647644 466.5063511567065 0  131.0131521012763 469.8684379967393 0  137.1166607840049 473.0635598376539 0  143.3058914748804 476.0892903390826 0  149.5761441732679 478.9433318113714 0  155.9226573130112 481.6235169255377 0  162.3406114779862 484.1278104026658 0  168.8251329570439 486.4543105138039 0  175.3712974805475 488.601250542119 0  181.9741340135204 490.5670001408953 0  188.6286284005059 492.3500665318597 0  195.3297273788229 493.9490956972913 0  202.0723421640089 495.3628733414168 0  208.8513525529672 496.5903258712308 0  215.6616106544547 497.6305211744985 0  222.4979448327038 498.4826693384772 0  229.3551637102845 499.1461232581612 0  236.2280599621369 499.6203791111485 0  243.1114144470173 499.9050767573145 0  155.2373389820306 474.8197567317462 0  25.36256300907667 153.9152755065208 0  432.3709625126712 412.6214396304305 0  6.013151705810699 246.637913163471 0  246.6379131630491 493.986848294322 0  338.6995838441862 22.68244767887072 0  477.3175523131281 338.6995838660569 0  493.9868482700757 246.6379131399102 0  246.6201155078769 6.218451882810491 0  417.6179310263282 72.7156044707053 0  102.2232990934413 445.0100869616822 0  63.66330858966404 92.20354579482142 0  391.3105220491464 50.73522820883105 0  72.79295043967942 418.0702734974704 0  448.290574428537 108.25674339002 0  402.4604651193511 440.7462829841712 0  97.55317348421397 59.11376320116034 0  136.7376477664901 33.58246472647134 0  363.3288394375288 465.6947312928271 0  44.0678766556007 381.0860953771871 0  469.6905266180034 142.3890690100806 0  22.68244791668644 338.6995843487432 0  338.699584349159 477.317552078365 0  173.389488083762 18.6681884918202 0  483.4809734778481 179.7121987795732 0  13.50237455842738 306.4709525540879 0  305.9825168523021 487.24416992
[...]
<PointData  Vectors="f_12"> 
<DataArray  type="Float64"  Name="f_12"  NumberOfComponents="3" format="ascii">0.0000000000000000e+00 9.4818542300004316e-01 6.8207575941923199e-02  0.0000000000000000e+00 9.2913342493363926e-01 3.5504986966913066e-02  0.0000000000000000e+00 8.1457824992647843e-01 3.4355332238331926e-01  0.0000000000000000e+00 6.8029881865705344e-01 1.1839088404966332e-02  0.0000000000000000e+00 8.1352888087566377e-01 3.4538383924259963e-01  0.0000000000000000e+00 8.1291664040564482e-01 3.4645042937986276e-01  0.0000000000000000e+00 8.1255316593367388e-01 3.4708346140713225e-01  0.0000000000000000e+00 8.1257390890074255e-01 3.4704739878673863e-01  0.0000000000000000e+00 8.1291294655055935e-01 3.4645681736813305e-01  0.0000000000000000e+00 8.1358092069321419e-01 3.4529288958458776e-01  0.0000000000000000e+00 8.1456452734444185e-01 3.4357748350208778e-01  0.0000000000000000e+00 8.1583150723387576e-01 3.4136538118084109e-01  0.0000000000000000e+00 8.1738393670159026e-01 3.3865111252831398e-01  0.0000000000000000e+00 8.1922890414840188e-01 3.3541950880124505e-01  0.0000000000000000e+00 8.2144980966314018e-01 3.3152137900062162e-01  0.0000000000000000e+00 8.2369846840151772e-01 3.2756647341822281e-01  0.0000000000000000e+00 8.2643629346102732e-01 3.2273745265926040e-01  0.0000000000000000e+00 8.2917042985665590e-01 3.1790116778374672e-01  0.0000000000000000e+00 8.3209338207202865e-01 3.1271576031322140e-01  0.0000000000000000e+00 8.3513019641877251e-01 3.0731131683380952e-01  0.0000000000000000e+00 8.3820992018381779e-01 3.0181195220823825e-01  0.0000000000000000e+00 8.4140831823391493e-01 2.9607967144621239e-01  0.0000000000000000e+00 8.4466980311560858e-01 2.9021372053903793e-01  0.0000000000000000e+00 8.4793276423264607e-01 2.8432307055218747e-01  0.0000000000000000e+00 8.5131451222703769e-01 2.7819492067040713e-01  0.0000000000000000e+00 8.5487739447783340e-01 2.7171201828353342e-01  0.0000000000000000e+00 8.5863797477434223e-01 2.6484079180411568e-01  0.0000000000000000e+00 8.6241269487062522e-01 2.5791309938037216e-01  0.0000000000000000e+00 8.6623819820460013e-01 2.5085890124497873e-01  0.0000000000000000e+00 8.7013929026422909e-01 2.4362920039857580e-01  0.0000000000000000e+00 8.7389877422563400e-01 2.3662492263348400e-01  0.0000000000000000e+00 8.7757899681115858e-01 2.2972912694140057e-01  0.0000000000000000e+00 8.8119298512533750e-01 2.2291931570129075e-01  0.0000000000000000e+00 8.8476502031006177e-01 2.1614931657538308e-01  0.0000000000000000e+00 8.8843294999369782e-01 2.0915487122592033e-01  0.0000000000000000e+00 8.9213083469213095e-01 2.0205921633577992e-01  0.0000000000000000e+00 8.9579593203379415e-01 1.9497898252291476e-01  0.0000000000000000e+00 8.9941846606202214e-01 1.8792638641265869e-01  0.0000000000000000e+00 9.0291562475900933e-01 1.8105745443837901e-01  0.0000000000000000e+00 9.0621777721114805e-01 1.7451014520542080e-01  0.0000000000000000e+00 9.0938427088294160e-01 1.6816933387027955e-01  0.0000000000000000e+00 9.1254973870617928e-01 1.6176536376268633e-01  0.0000000000000000e+00 9.1572453112885410e-01 1.5527251177798138e-01  0.0000000000000000e+00 9.1879523917172279e-01 1.4891038396906758e-01  0.0000000000000000e+00 9.2172830743475798e-01 1.4274028938432090e-01  0.0000000000000000e+00 9.2448922246969822e-01 1.3683139180010034e-01  0.0000000000000000e+00 9.2707569446445393e-01 1.3118431673784423e-01  0.0000000000000000e+00 9.2953284899224053e-01 1.2570164516753876e-01  0.0000000000000000e+00 9.3195014066658033e-01 1.2018143162074713e-01  0.0000000000000000e+00 9.3425502973378982e-01 1.1477652353006400e-01  0.0000000000000000e+00 9.3638509451783014e-01 1.0960459140828353e-01  0.0000000000000000e+00 9.3831985031877707e-01 1.0471104684636898e-01  0.0000000000000000e+00 9.4007007853042301e-01 1.0005980686779332e-01  0.0000000000000000e+00 9.4169027492140200e-01 9.5512493673506615e-02  0.0000000000000000e+00 9.4317965986506414e-01 9.1058210917968840e-02  0.0000000000000000e+00 9.4450259734203623e-01 8.6765316150953398e-02  0.0000000000000000e+00 9.4563879619608704e-01 8.2666157255621195e-02  0.0000000000000000e+00 9.4657337048363599e-01 7.8793543559376955e-02  0.0000000000000000e+00 9.4732154023870330e-01 7.5103514333257682e-02  0.0000000000000000e+00 9.4786368562814727e-01 7.1657944891506550e-02  0.0000000000000000e+00 9.4837695421403678e-01 6.4876462571035839e-02  0.0000000000000000e+00 9.4831381670799830e-01 6.1768167076722863e-02  0.0000000000000000e+00 9.4800660448078744e-01 5.8910858565527753e-02  0.0000000000000000e+00 9.4748139127263586e-01 5.6130062360718769e-02  0.0000000000000000e+00 9.4671300239968426e-01 5.3457840559382991e-02  0.0000000000000000e+00 9.4569983921696166e-01 5.0870780833864121e-02  0.0000000000000000e+00 9.4442148000254489e-01 4.8454716851199772e-02  0.0000000000000000e+00 9.4288477693742601e-01 4.6210644580416571e-02  0.0000000000000000e+00 9.4107874745346942e-01 4.4089323899427824e-02  0.0000000000000000e+00 9.3897645186471235e-01 4.2051313681674259e-02  0.0000000000000000e+00 9.3655315843654419e-01 4.0077727698978494e-02  0.0000000000000000e+00 9.3383621761628877e-01 3.8223631803572883e-02  0.0000000000000000e+00 9.3083117048237607e-01 3.6497182142132940e-02  0.0000000000000000e+00 9.2754399308021607e-01 3.4895530297512148e-02  0.0000000000000000e+00 9.2393145290718692e-01 3.3373880062954810e-02  0.0000000000000000e+00 9.1995040806987560e-01 3.1909215123498327e-02  0.0000000000000000e+00 9.1560026538140382e-01 3.0504090699286602e-02  0.0000000000000000e+00 9.1093725123579361e-01 2.9190533228777210e-02  0.0000000000000000e+00 9.0601523419464824e-01 2.7980851794289746e-02  0.0000000000000000e+00 9.0082825155392332e-01 2.6857243062042350e-02  0.0000000000000000e+00 8.9528723443368829e-01 2.5786067997101921e-02  0.0000000000000000e+00 8.8938106486910928e-01 2.4763866781841011e-02  0.0000000000000000e+00 8.8308283316346603e-01 2.3780843044503522e-02  0.0000000000000000e+00 8.7653793906751576e-01 2.2863890408963226e-02  0.0000000000000000e+00 8.6981992611026604e-01 2.2020438577065173e-02  0.0000000000000000e+00 8.6297212486783337e-01 2.1246432644887490e-02  0.0000000000000000e+00 8.5593589303775264e-01 2.0524004940833805e-02  0.0000000000000000e+00 8.4861528373931727e-01 1.9834077154462899e-02  0.0000000000000000e+00 8.4098326197043238e-01 1.9168430755973045e-02  0.0000000000000000e+00 8.3309882298256921e-01 1.8534867006548748e-02  0.0000000000000000e+00 8.2512677697186465e-01 1.7945922199316428e-02  0.0000000000000000e+00 8.1721018405207912e-01 1.7408377153865600e-02  0.0000000000000000e+00 8.0937048488948116e-01 1.6917802698718582e-02  0.0000000000000000e+00 8.0165815758821668e-01 1.6468884931010366e-02  0.0000000000000000e+00 7.9402453925897576e-01 1.6052452599883880e-02  0.0000000000000000e+00 7.8618949400894411e-01 1.5647072321762389e-02  0.0000000000000000e+00 7.7826531198248106e-01 1.5258631998322584e-02  0.0000000000000000e+00 7.7048892644030953e-01 1.4899583400150384e-02  0.0000000000000000e+00 7.6269713584467835e-01 1.4558065700762783e-02  0.0000000000000000e+00 7.5505988845173067e-01 1.4240546530638550e-02  0.0000000000000000e+00 7.4798552564471621e-01 1.3963778298896119e-02  0.0000000000000000e+00 7.4123097799297344e-01 1.3713759222568655e-02  0.0000000000000000e+00 7.3486630427466826e-01 1.3487894188433207e-02  0.0000000000000000e+00 7.2880372090766543e-01 1.3280697470144936e-02  0.0000000000000000e+00 7.2304844040620098e-01 1.3090436308954647e-02  0.0000000000000000e+00 7.1754739850721538e-01 1.2913801609403067e-02  0.0000000000000000e+00 7.1233636046365123e-01 1.2750917242126283e-02  0.0000000000000000e+00 7.0744587131313064e-01 1.2601845883093279e-02  0.0000000000000000e+00 7.0280588178796688e-01 1.2463404969756120e-02  0.0000000000000000e+00 6.9845313090011418e-01 1.2335783223240812e-02  0.0000000000000000e+00 6.9452169132393382e-01 1.2222981411141193e-02  0.0000000000000000e+00 6.9104428365569204e-01 1.2125696138233936e-02  0.0000000000000000e+00 6.8805464035323016e-01 1.2044586782151243e-02  0.0000000000000000e+00 6.8539781214859519e-01 1.1973374551275062e-02  0.0000000000000000e+00 6.8325032532518470e-01 1.1916325271215318e-02  0.0000000000000000e+00 6.8151890436661788e-01 1.1870415669755982e-02  0.0000000000000000e+00 6.7974395752267724e-01 1.1826143800478842e-02  0.0000000000000000e+00 6.7857748351620617e-01 1.1792290026119463e-02  0.0000000000000000e+00 6.7911769407506750e-01 1.1808941179529471e-02  0.0000000000000000e+00 6.7959521410687040e-01 1.1821265919134192e-02  0.0000000000000000e+00 6.8043132251134386e-01 1.1842648638013936e-02  0.0000000000000000e+00 6.8176882581906417e-01 1.1877987920844428e-02  0.0000000000000000e+00 6.8358785790851229e-01 1.1926522246328817e-02  0.0000000000000000e+00 6.8570513145890843e-01 1.1982895319000998e-02  0.0000000000000000e+00 6.8824797862341902e-01 1.2051651703258856e-02  0.0000000000000000e+00 6.9067712659957847e-01 1.2115851038986922e-02  0.0000000000000000e+00 6.9418906688057835e-01 1.2215010542240683e-02  0.0000000000000000e+00 6.9779973721400046e-01 1.2318306858408925e-02  0.0000000000000000e+00 7.0167217279309524e-01 1.2430909739648199e-02  0.0000000000000000e+00 7.0562415476991414e-01 1.2546403697215346e-02  0.0000000000000000e+00 7.0988888130667394e-01 1.2674411174848917e-02  0.0000000000000000e+00 7.1452535070644685e-01 1.2818061020294187e-02  0.0000000000000000e+00 7.1921382331970252e-01 1.2965808254113989e-02  0.0000000000000000e+00 7.2404275270874130e-01 1.3120856679977809e-02  0.0000000000000000e+00 7.2901936412286028e-01 1.3284853248441567e-02  0.0000000000000000e+00 7.3418776526411389e-01 1.3460690710732953e-02  0.0000000000000000e+00 7.3961856968962247e-01 1.3652332085782348e-02  0.0000000000000000e+00 7.4529872886586468e-01 1.3860070159592404e-02  0.0000000000000000e+00 7.5114157381004965e-01 1.4081919852879312e-02  0.0000000000000000e+00 7.5718219855532753e-01 1.4321558657119347e-02  0.0000000000000000e+00 7.6342438701891091e-01 1.4580934152528261e-02  0.0000000000000000e+00 7.6979498212729958e-01 1.4858426240967695e-02  0.0000000000000000e+00 7.7622718563167170e-01 1.5152069334806893e-02  0.0000000000000000e+00 7.8262457055485701e-01 1.5457790454501253e-02  0.0000000000000000e+00 7.8893897744309294e-01 1.5773163996791205e-02  0.0000000000000000e+00 7.9513620413902852e-01 1.6096566874148458e-02  0.0000000000000000e+00 8.0123166074525343e-01 1.6429171966194644e-02  0.0000000000000000e+00 8.0724638441847552e-01 1.6772854359610099e-02  0.0000000000000000e+00 8.1327101083944520e-01 1.7136049673731949e-02  0.0000000000000000e+00 8.1935596185631798e-01 1.7526353365936873e-02  0.0000000000000000e+00 8.2556743541010336e-01 1.7951057322899179e-02  0.0000000000000000e+00 8.3180026738647761e-01 1.8406555497589107e-02  0.0000000000000000e+00 8.3798161521931835e-01 1.8889264168381235e-02  0.0000000000000000e+00 8.4400990706280521e-01 1.9390436224294375e-02  0.0000000000000000e+00 8.4982114703531642e-01 1.9904717229271948e-02  0.0000000000000000e+00 8.5538396918780901e-01 2.0428559395499021e-02  0.0000000000000000e+00 8.6084133021426112e-01 2.0977514802834937e-02  0.0000000000000000e+00 8.6614976572472524e-01 2.1548923142418415e-02  0.0000000000000000e+00 8.7131112143110212e-01 2.2147610373774614e-02  0.0000000000000000e+00 8.7649742172709244e-01 2.2800066023884891e-02  0.0000000000000000e+00 8.8166754347191367e-01 2.3511363850961121e-02  0.0000000000000000e+00 8.8671352150774874e-01 2.4269279078515327e-02  0.0000000000000000e+00 8.9145243741840485e-01 2.5039233892319261e-02  0.0000000000000000e+00 8.9607666740546577e-01 2.5859680394072167e-02  0.0000000000000000e+00 9.0038671042751572e-01 2.6687866074463631e-02  0.0000000000000000e+00 9.0452900576083362e-01 2.7555378283155324e-02  0.0000000000000000e+00 9.0849738028644933e-01 2.8477344041454161e-02  0.0000000000000000e+00 9.1240745733914008e-01 2.9485128345203334e-02  0.0000000000000000e+00 9.1620510124268117e-01 3.0582563128431113e-02  0.0000000000000000e+00 9.1980088333162058e-01 3.1746599117756631e-02  0.0000000000000000e+00 9.2314660393126080e-01 3.2952380970414676e-02  0.0000000000000000e+00 9.2624594782086955e-01 3.4197585736450216e-02  0.0000000000000000e+00 9.3184774827823569e-01 3.6904049067601932e-02  0.0000000000000000e+00 9.3439685491003177e-01 3.8424040973759829e-02  0.0000000000000000e+00 9.3675955602977434e-01 4.0070739311815547e-02  0.0000000000000000e+00 9.3890799329378583e-01 4.1812688982918234e-02  0.0000000000000000e+00 9.4082115469686278e-01 4.3626141381565613e-02  0.0000000000000000e+00 9.4250892024192490e-01 4.5518478922118424e-02  0.0000000000000000e+00 9.4398886909526925e-01 4.7531750063626262e-02  0.0000000000000000e+00 9.4526956225448056e-01 4.9717400139531819e-02  0.0000000000000000e+00 9.4634010595114482e-01 5.2090519345624281e-02  0.0000000000000000e+00 9.4718856182072186e-01 5.4619100509655787e-02  0.0000000000000000e+00 9.4781551716898615e-01 5.7257090976766851e-02  0.0000000000000000e+00 9.4823360705328508e-01 6.0005987147805112e-02  0.0000000000000000e+00 9.4843335462456091e-01 6.2935233034756580e-02  0.0000000000000000e+00 9.4840359361810578e-01 6.6122041188632075e-02  0.0000000000000000e+00 9.4814813546069865e-01 6.9534735186343732e-02  0.0000000000000000e+00 9.4767499871180938e-01 7.3138799090870496e-02  0.0000000000000000e+00 9.4700341480632233e-01 7.6897260084816108e-02  0.0000000000000000e+00 9.4612877116990435e-01 8.0838778367536154e-02  0.0000000000000000e+00 9.4500423259992861e-01 8.5099124182109354e-02  0.0000000000000000e+00 9.4364231649956476e-01 8.9660569678507690e-02  0.0000000000000000e+00 9.4205991553861779e-01 9.4476426123486418e-02  0.0000000000000000e+00 9.4029814033261461e-01 9.9463077547036136e-02  0.0000000000000000e+00 9.3834117653203231e-01 1.0467273445389087e-01  0.0000000000000000e+00 9.3613017728157322e-01 1.1024353947474445e-01  0.0000000000000000e+00 9.3365872695214813e-01 1.1619400718055697e-01  0.0000000000000000e+00 9.3097315923904334e-01 1.2242965166485997e-01  0.0000000000000000e+00 9.2812514401687196e-01 1.2885386112883537e-01  0.0000000000000000e+00 9.2512039282844583e-01 1.3545678046332130e-01  0.0000000000000000e+00 9.2186073405626145e-01 1.4244957394236454e-01  0.0000000000000000e+00 9.1835382744665839e-01 1.4981996937160513e-01  0.0000000000000000e+00 9.1464401500398074e-01 1.5748185228781925e-01  0.0000000000000000e+00 9.1080634992926790e-01 1.6529185419134382e-01  0.0000000000000000e+00 9.0687056441032143e-01 1.7319822998519363e-01  0.0000000000000000e+00 9.0275439859405016e-01 1.8136456047276225e-01  0.0000000000000000e+00 8.9839167410860288e-01 1.8992033304037420e-01  0.0000000000000000e+00 8.9388068068261328e-01 1.9867668606244401e-01  0.0000000000000000e+00 8.8929699284924479e-01 2.0749372900064264e-01  0.0000000000000000e+00 8.8466607744947445e-01 2.1633009872710132e-01  0.0000000000000000e+00 8.8006681173136669e-01 2.2503901817252531e-01  0.0000000000000000e+00 8.7540928737828483e-01 2.3379181446820296e-01  0.0000000000000000e+00 8.7061585311629996e-01 2.4273619792675663e-01  0.0000000000000000e+00 8.6575234282643954e-01 2.5175022025102450e-01  0.0000000000000000e+00 8.6087374878182388e-01 2.6073555200169707e-01  0.0000000000000000e+00 8.5619925443771028e-01 2.6929536097997825e-01  0.0000000000000000e+00 8.5167555167669051e-01 2.7753464822868035e-01  0.0000000000000000e+00 8.4738381497737147e-01 2.8531152831338508e-01  0.0000000000000000e+00 8.4330650586358202e-01 2.9266487217774684e-01  0.0000000000000000e+00 8.3937784937315274e-01 2.9971866876103348e-01  0.0000000000000000e+00 8.3561111840515812e-01 3.0645212175285402e-01  0.0000000000000000e+00 8.3197657617068410e-01 3.1292133049761967e-01  0.0000000000000000e+00 8.2847818183841193e-01 3.1912522878784233e-01  0.0000000000000000e+00 8.2528506729449513e-01 3.2476754393401569e-01  0.0000000000000000e+00 8.2243458191515761e-01 3.2978888486861679e-01  0.0000000000000000e+00 8.1992061493752000e-01 3.3420482542931756e-01  0.0000000000000000e+00 8.1778089331480419e-01 3.3795546914245844e-01  0.0000000000000000e+00 8.1604451432331626e-01 3.4099250775074735e-01  0.0000000000000000e+00 8.6384396482009873e-01 2.5527019142921931e-01  0.0000000000000000e+00 8.6852582423220115e-01 2.1829481181326684e-02  0.0000000000000000e+00 8.8731218915461130e-01 2.1129647115161015e-01  0.0000000000000000e+00 9.2792471262135323e-01 3.4953930238953546e-02  0.0000000000000000e+00 8.1632212624674128e-01 3.4050663657871150e-01  0.0000000000000000e+00 7.3359149344216223e-01 1.3453488926380427e-02  0.0000000000000000e+00 9.2853465636192478e-01 1.2793874102159686e-01  0.0000000000000000e+00 9.4832973837371071e-01 6.6395211305882371e-02  0.0000000000000000e+00 6.8248301774425257e-01 1.1910060075206142e-02  0.0000000000000000e+00 8.3766192091309011e-01 1.8902440947731740e-02  0.0000000000000000e+00 9.0520949701953191e-01 1.7650312591147990e-01  0.0000000000000000e+00 8.0543548005244836e-01 1.6677856446235349e-02  0.0000000000000000e+00 7.9796418526635526e-01 1.6271832928685833e-02  0.0000000000000000e+00 9.2666616844906180e-01 1.3207779974227404e-01  0.0000000000000000e+00 8.8642877896225913e-01 2.4295408757872776e-02  0.0000000000000000e+00 8.6482629177620729e-01 2.5346565338135346e-01  0.0000000000000000e+00 7.6156096903236392e-01 1.4512659786766267e-02  0.0000000000000000e+00 7.2340764896276721e-01 1.3110254824355230e-02  0.0000000000000000e+00 8.4080828947910147e-01 2.9715680596863697e-01  0.0000000000000000e+00 9.4278725833142196e-01 9.2299628226308217e-02  0.0000000000000000e+00 9.1774037585078261e-01 3.1176769595256625e-02  0.0000000000000000e+00 9.4844616339912857e-01 6.4533543637949942e-02  0.0000000000000000e+00 8.2866648264274656e-01 3.1879293507968942e-01  0.0000000000000000e+00 6.9876888429623674e-01 1.2358435801825388e-02  0.0000000000000000e+00 9.3750758860771310e-01 4.0819758208040617e-02  0.0000000000000000e+00 9.4587400979041025e-01 5.1014158879589627e-02  0.0000000000000000e+00 8.1755791272226441e-01 3.3834534616034068e-01  0.0000000000000000e+00 8.3822935484579220e-01 3.0177409169049768e-01  0.0000000000000000e+00 8.9869657352733578e-01 2.6368273317023124e-02  0.0000000000000000e+00 7.0284610117425961e-01 1.2475829553137545e-02  0.0000000000000000e+00 9.4100295567114967e-01 9.7468293780585732e-02  0.0000000000000000e+00 9.0756937705848384e-01 1.7180859244851171e-01  0.0000000000000000e+00 6.8498124690300732e-01 1.1974171306821572e-02  0.0000000000000000e+00 9.4496804471995155e-01 4.9418636037751200e-02  0.0000000000000000e+00 9.3998531302057609e-01 4.2818013291854203e-02  0.0000000000000000e+00 8.1374962080987601e-01 3.4499768288558119e-01  0.0000000000000000e+00 7.6807808943900846e-01 1.4800465764042892e-02  0.0000000000000000e+00 8.4188695202326325e-01 1.9220547647336914e-02  0.0000000000000000e+00 8.2472569007360974e-01 3.2575323846108845e-01  0.0000000000000000e+00 8.8292218032333714e-01 2.1964018061130816e-01  0.0000000000000000e+00 9.1511347949805488e-01 3.0270009921795578e-02  0.0000000000000000e+00 6.8936293217849287e-01 1.2093548335652826e-02  0.0000000000000000e+00 9.4607179660736429e-01 8.0925843535174694e-02  0.0000000000000000e+00 8.5414106289773917e-01 2.7305261240322587e-01  0.0000000000000000e+00 9.3551808527590818e-01 1.1172869375265866e-01  0.0000000000000000e+00 6.8147984064691924e-01 1.1881172486229909e-02  0.0000000000000000e+00 7.1686973258128850e-01 1.2902013968627358e-02  0.0000000000000000e+00 9.4774673652280628e-01 5.7367427512018801e-02  0.0000000000000000e+00 8.5964624361243347e-01 2.0903799647468614e-02  0.0000000000000000e+00 8.5012764644389449e-01 2.8034179539976645e-01  0.0000000000000000e+00 8.9821601260018791e-01 1.9027263332040928e-01  0.0000000000000000e+00 9.3486670483936540e-01 1.1331374652550034e-01  0.0000000000000000e+00 7.4423797885236342e-01 1.3831366514813306e-02  0.0000000000000000e+00 9.4653671107718540e-01 7.9088430874094576e-02  0.0000000000000000e+00 8.8479685942340514e-01 2.3987149605778642e-02  0.0000000000000000e+00 9.1757502375174871e-01 1.5144599793229999e-01  0.0000000000