<?xml version="1.0"?>
<VTKFile type="UnstructuredGrid"  version="0.1"  >
<UnstructuredGrid>
<Piece  NumberOfPoints="4940" NumberOfCells="9650">
<Points>
<DataArray  type="Float64"  NumberOfComponents="3"  format="ascii">500 250 0  0 250 0  250 500 0  250 0 0  256.8885856082646 499.9050767557906 0  263.7719401218049 499.6203791065173 0  270.6448364229772 499.1461232471188 0  277.5020553257866 498.4826693209355 0  284.3383895508592 497.6305211460281 0  291.1486476865662 496.5903258312597 0  297.9276581259182 495.3628732847843 0  304.6702729675493 493.9490956196674 0  311.3713719748657 492.3500664368026 0  318.0258664141369 490.5670000199653 0  324.6287029687753 488.6012504015818 0  331.1748675330201 486.4543103455647 0  337.6593890460416 484.1278102064655 0  344.0773432429536 481.6235166997244 0  350.4238564271474 478.9433315480048 0  356.694109139292 476.0892900492477 0  362.88333985546 473.0635595140469 0  368.9868485575419 469.8684376402048 0  375.0000003153078 466.5063507640667 0  380.9182288257928 462.9798520074548 0  386.7370398729688 459.2916193419558 0  392.4520147244077 455.444453565817 0  398.0588135356345 451.4412761437442 0  403.5531785622926 447.285127045646 0  408.9309374414144 442.9791624087773 0  414.1880064015299 438.5266521049243 0  419.3203932989752 433.9309773069245 0  424.324200661095 429.1956279150535 0  429.1956286596235 424.3241998957182 0  433.9309780058756 419.3203925397119 0  438.5266527445345 414.1880056671062 0  442.9791630130591 408.9309367076756 0  447.2851276060475 403.5531778422888 0  451.4412766621026 398.0588128303826 0  455.4444540361634 392.4520140460735 0  459.2916197786263 386.7370392045948 0  462.9798524073514 380.9182281752347 0  466.5063511234856 374.9999996927758 0  469.8684379657123 368.9868479560565 0  473.0635598144817 362.8833392617846 0  476.0892903190255 356.6941085676214 0  478.9433317963513 350.4238558609745 0  481.6235169154735 344.0773427117675 0  484.12781039012 337.6593885555221 0  486.4543105028062 331.1748670749914 0  488.601250531677 324.6287025528375 0  490.5670001317469 318.0258660188321 0  492.3500665291326 311.3713716102628 0  493.949095695951 304.6702726271575 0  495.3628733416623 297.9276578347343 0  496.5903258712341 291.1486474470129 0  497.6305211749058 284.3383893426084 0  498.4826693388848 277.502055163614 0  499.1461232580606 270.6448362909296 0  499.6203791109319 263.7719400417897 0  499.9050767571306 256.8885855596534 0  499.9050767559877 243.1114143988867 0  499.6203791069493 236.2280598860241 0  499.1461232485393 229.3551635941651 0  498.4826693235677 222.4979446979962 0  497.6305211491849 215.6616104719064 0  496.5903258357701 208.8513523404629 0  495.3628732906988 202.0723419043604 0  493.9490956264813 195.3297270628552 0  492.3500664487791 188.6286280724281 0  490.5670000344809 181.9741336371959 0  488.6012504175981 175.3712970824318 0  486.4543103623226 168.8251325157939 0  484.1278102222298 162.3406109960628 0  481.6235167152198 155.9226567951971 0  478.9433315621651 149.5761436051346 0  476.0892900516498 143.3058908657982 0  473.063559513628 137.1166601437124 0  469.8684376406648 131.0131514433083 0  466.5063507675389 124.9999996907064 0  462.9798520124137 119.0817711822745 0  459.2916193464549 113.2629601339176 0  455.4444535642773 107.5479852733717 0  451.4412761528674 101.9411864767781 0  447.2851270583545 96.44682145403524 0  442.9791624165781 91.06906256805769 0  438.5266521117469 85.81199360630404 0  433.9309773156125 80.67960671046254 0  429.1956279150353 75.67579933888632 0  424.3241998888952 70.80437133373906 0  419.3203925223282 66.06902197812161 0  414.1880056411937 61.47334723289828 0  408.9309366751728 57.0208369601728 0  403.5531778009394 52.71487236176898 0  398.058812796452 48.55872331295853 0  392.4520140187753 44.55554594490843 0  386.7370391799677 40.70838020528396 0  380.9182281475119 37.02014757560744 0  374.9999996718656 33.49364886444181 0  368.9868479340393 30.13156202237255 0  362.8833392380029 26.93644017348339 0  356.6941085456942 23.91070967062674 0  350.4238558420009 21.0566681953261 0  344.0773426899492 18.37648307566465 0  337.6593885328982 15.87218960140942 0  331.1748670549786 13.54568949032341 0  324.6287025315056 11.39874946165088 0  318.0258660010876 9.432999863235466 0  311.3713716017894 7.649933468721599 0  304.6702726190621 6.050904302234756 0  297.9276578269805 4.637126656823085 0  291.148647441857 3.409674127905504 0  284.3383893425031 2.369478825079682 0  277.502055159398 1.517330660648639 0  270.6448362875833 0.853876741662134 0  263.7719400401456 0.3796208889774277 0  256.8885855592052 0.09492324285704967 0  243.1114143979462 0.09492324403817065 0  236.2280598850882 0.3796208931023841 0  229.3551635938215 0.8538767514891958 0  222.4979446968584 1.517330676558146 0  215.6616104703111 2.369478851036291 0  208.8513523382973 3.409674164591252 0  202.0723419066374 4.637126708856528 0  195.3297270659513 6.050904372824903 0  188.628628074828 7.649933550613184 0  181.9741336377093 9.432999965373938 0  175.3712970793675 11.39874958336037 0  168.8251325057572 13.54568964112298 0  162.340610986655 15.87218978129263 0  155.9226567874317 18.37648328793418 0  149.576143602509 21.05666843898663 0  143.3058908718157 23.91070994551046 0  137.1166601505524 26.93644048291054 0  131.0131514451933 30.13156235831508 0  124.9999996848412 33.49364923584736 0  119.0817711715717 37.0201479941652 0  113.2629601211624 40.70838066187849 0  107.5479852622251 44.55554644345162 0  101.9411864693332 48.55872385260452 0  96.44682143286516 52.71487295812284 0  91.06906254351222 57.02083760363669 0  85.81199358272519 61.4733479087879 0  80.67960667988106 66.06902271253972 0  75.67579930062769 70.80437212218331 0  70.80437129287643 75.67580015310926 0  66.06902193673014 80.67960752263491 0  61.47334718684866 85.81199441168215 0  57.02083692524275 91.0690633672404 0  52.71487232786438 96.44682224262129 0  48.55872328070024 101.941187247437 0  44.55554591578033 107.5479860232332 0  40.7083801742321 113.2629608675606 0  37.02014754791168 119.0817718975441 0  33.49364883372994 125.000000381329 0  30.13156199866361 131.0131521097709 0  26.9364401549829 137.1166607985551 0  23.91070965524918 143.3058914868915 0  21.05666818346614 149.576144185037 0  18.37648306853811 155.9226573275967 0  15.8721895918909 162.3406114925245 0  13.54568948170046 168.8251329701392 0  11.39874945301878 175.3712974960928 0  9.432999857087736 181.9741340206533 0  7.649933466342702 188.6286284076045 0  6.050904301250966 195.3297273853278 0  4.637126656808988 202.0723421730917 0  3.409674127767772 208.8513525589684 0  2.369478824521138 215.6616106615248 0  1.517330660909465 222.4979448382452 0  0.8538767414496533 229.355163714981 0  0.3796208887135322 236.2280599646376 0  0.09492324266324204 243.1114144478261 0  0.0949232442452228 256.8885856095658 0  0.3796208935834784 263.7719401236316 0  0.8538767530323526 270.6448364248016 0  1.517330679476544 277.5020553295092 0  2.369478854618649 284.3383895555228 0  3.409674170191892 291.1486476952655 0  4.6371267162381 297.9276581311522 0  6.050904381420935 304.6702729724059 0  7.649933562385399 311.3713719716595 0  9.43299997979841 318.0258664133013 0  11.3987495994252 324.6287029719946 0  13.54568965885832 331.174867545904 0  15.87218979367188 337.6593890464085 0  18.37648329843151 344.0773432384132 0  21.05666844777872 350.423856417535 0  23.91070995156048 356.6941091410045 0  26.93644048988043 362.8833398632205 0  30.13156235982007 368.9868485575877 0  33.49364924138357 375.0000003247478 0  37.0201480006036 380.9182288389023 0  40.70838066758398 386.7370398875706 0  44.55554644477201 392.4520147396792 0  48.55872386086904 398.0588135419111 0  52.71487295981296 403.5531785693063 0  57.02083760525949 408.9309374584583 0  61.47334790862246 414.1880064170849 0  66.06902271205095 419.320393319588 0  70.80437211216579 424.3242006890749 0  75.67580013809859 429.195628692521 0  80.6796075127923 433.930978054209 0  85.81199439754931 438.5266528008431 0  91.06906334717917 442.9791630582355 0  96.44682221438322 447.2851276501571 0  101.9411872243843 451.441276702356 0  107.5479859945825 455.4444540643537 0  113.2629608446994 459.2916198108319 0  119.0817718768376 462.9798524393601 0  125.0000003647644 466.5063511567065 0  131.0131521012763 469.8684379967393 0  137.1166607840049 473.0635598376539 0  143.3058914748804 476.0892903390826 0  149.5761441732679 478.9433318113714 0  155.9226573130112 481.6235169255377 0  162.3406114779862 484.1278104026658 0  168.8251329570439 486.4543105138039 0  175.3712974805475 488.601250542119 0  181.9741340135204 490.5670001408953 0  188.6286284005059 492.3500665318597 0  195.3297273788229 493.9490956972913 0  202.0723421640089 495.3628733414168 0  208.8513525529672 496.5903258712308 0  215.6616106544547 497.6305211744985 0  222.4979448327038 498.4826693384772 0  229.3551637102845 499.1461232581612 0  236.2280599621369 499.6203791111485 0  243.1114144470173 499.9050767573145 0  155.2373389820306 474.8197567317462 0  25.36256300907667 153.9152755065208 0  432.3709625126712 412.6214396304305 0  6.013151705810699 246.637913163471 0  246.6379131630491 493.986848294322 0  338.6995838441862 22.68244767887072 0  477.3175523131281 338.6995838660569 0  493.9868482700757 246.6379131399102 0  246.6201155078769 6.218451882810491 0  417.6179310263282 72.7156044707053 0  102.2232990934413 445.0100869616822 0  63.66330858966404 92.20354579482142 0  391.3105220491464 50.73522820883105 0  72.79295043967942 418.0702734974704 0  448.290574428537 108.25674339002 0  402.4604651193511 440.7462829841712 0  97.55317348421397 59.11376320116034 0  136.7376477664901 33.58246472647134 0  363.3288394375288 465.6947312928271 0  44.0678766556007 381.0860953771871 0  469.6905266180034 142.3890690100806 0  22.68244791668644 338.6995843487432 0  338.699584349159 477.317552078365 0  173.389488083762 18.6681884918202 0  483.4809734778481 179.7121987795732 0  13.50237455842738 306.4709525540879 0  305.9825168523021 487.24416992
[...]
<PointData  Vectors="f_12"> 
<DataArray  type="Float64"  Name="f_12"  NumberOfComponents="3" format="ascii">0.0000000000000000e+00 8.2056095160127795e-02 1.5146281573978937e-02  0.0000000000000000e+00 3.8813866550248190e-02 3.5526853221634049e-02  0.0000000000000000e+00 4.1673830909898463e-01 8.0557842237212376e-03  0.0000000000000000e+00 1.5234739646322697e-02 2.7548746504005905e-01  0.0000000000000000e+00 4.1861598541628853e-01 8.0685891124219131e-03  0.0000000000000000e+00 4.1977496586682628e-01 8.0765556998034418e-03  0.0000000000000000e+00 4.2040674065389760e-01 8.0808567558894075e-03  0.0000000000000000e+00 4.2039360958160743e-01 8.0807992619778869e-03  0.0000000000000000e+00 4.1980540644927716e-01 8.0767034426904930e-03  0.0000000000000000e+00 4.1863754221602967e-01 8.0685670935410105e-03  0.0000000000000000e+00 4.1689083591143938e-01 8.0564816171291038e-03  0.0000000000000000e+00 4.1458478119555919e-01 8.0407346587319708e-03  0.0000000000000000e+00 4.1171228976958474e-01 8.0213581020368747e-03  0.0000000000000000e+00 4.0826276964120067e-01 7.9985358710216257e-03  0.0000000000000000e+00 4.0417686233576677e-01 7.9720314484459324e-03  0.0000000000000000e+00 3.9981620324393707e-01 7.9444035491545942e-03  0.0000000000000000e+00 3.9475296492602074e-01 7.9136011016931098e-03  0.0000000000000000e+00 3.8952173992303024e-01 7.8833494567873627e-03  0.0000000000000000e+00 3.8399648619592047e-01 7.8529555928018475e-03  0.0000000000000000e+00 3.7830450696426082e-01 7.8233300876284842e-03  0.0000000000000000e+00 3.7253394616404351e-01 7.7957703577886542e-03  0.0000000000000000e+00 3.6659487614304198e-01 7.7704259301704147e-03  0.0000000000000000e+00 3.6052966119323715e-01 7.7470912959493364e-03  0.0000000000000000e+00 3.5433101619734475e-01 7.7258424385292443e-03  0.0000000000000000e+00 3.4780044967520612e-01 7.7060803052818776e-03  0.0000000000000000e+00 3.4076947445178518e-01 7.6876853882294144e-03  0.0000000000000000e+00 3.3316889674581701e-01 7.6699178717230289e-03  0.0000000000000000e+00 3.2517165853633917e-01 7.6541738347984736e-03  0.0000000000000000e+00 3.1680155518966013e-01 7.6417641195208139e-03  0.0000000000000000e+00 3.0816154746067032e-01 7.6329973401938894e-03  0.0000000000000000e+00 2.9966434519320667e-01 7.6309020230769676e-03  0.0000000000000000e+00 2.9134650133774331e-01 7.6362901696782745e-03  0.0000000000000000e+00 2.8323966156692931e-01 7.6494751314072880e-03  0.0000000000000000e+00 2.7521966976848383e-01 7.6694427158995118e-03  0.0000000000000000e+00 2.6698513411893665e-01 7.6974293592511943e-03  0.0000000000000000e+00 2.5849040834364700e-01 7.7335606613432020e-03  0.0000000000000000e+00 2.4972963862737377e-01 7.7771835023385475e-03  0.0000000000000000e+00 2.4076365359641824e-01 7.8307956568563972e-03  0.0000000000000000e+00 2.3187197745144819e-01 7.8961595488473944e-03  0.0000000000000000e+00 2.2334822931155895e-01 7.9731134075783569e-03  0.0000000000000000e+00 2.1517574289837621e-01 8.0626569819275754e-03  0.0000000000000000e+00 2.0709705451604177e-01 8.1667139702684202e-03  0.0000000000000000e+00 1.9894630731742052e-01 8.2855344191304567e-03  0.0000000000000000e+00 1.9073100199628959e-01 8.4223275520681345e-03  0.0000000000000000e+00 1.8250164415019915e-01 8.5773311896189964e-03  0.0000000000000000e+00 1.7448548757609347e-01 8.7507359659058214e-03  0.0000000000000000e+00 1.6684777511308543e-01 8.9428493175017134e-03  0.0000000000000000e+00 1.5957558629788512e-01 9.1570445224178117e-03  0.0000000000000000e+00 1.5240298109720282e-01 9.3967854770520571e-03  0.0000000000000000e+00 1.4529165794654075e-01 9.6634319372063595e-03  0.0000000000000000e+00 1.3825644412815083e-01 9.9630881191854950e-03  0.0000000000000000e+00 1.3145658829287185e-01 1.0290803874656317e-02  0.0000000000000000e+00 1.2502077006558021e-01 1.0651190943644400e-02  0.0000000000000000e+00 1.1891950903167117e-01 1.1044222615710853e-02  0.0000000000000000e+00 1.1304575547724262e-01 1.1475799684994795e-02  0.0000000000000000e+00 1.0730286227152361e-01 1.1956270375836358e-02  0.0000000000000000e+00 1.0165785864164519e-01 1.2488389304603721e-02  0.0000000000000000e+00 9.6262150021070275e-02 1.3073679984181050e-02  0.0000000000000000e+00 9.1207341076353921e-02 1.3695446341767347e-02  0.0000000000000000e+00 8.6569507012611652e-02 1.4363671927410507e-02  0.0000000000000000e+00 7.7612746265420696e-02 1.5952489013263054e-02  0.0000000000000000e+00 7.3366876125308789e-02 1.6862659097619317e-02  0.0000000000000000e+00 6.9438811996982444e-02 1.7847119229601215e-02  0.0000000000000000e+00 6.5741763677117024e-02 1.8900889417917316e-02  0.0000000000000000e+00 6.2292660848829874e-02 2.0056352842133682e-02  0.0000000000000000e+00 5.8942371537072248e-02 2.1315536171440760e-02  0.0000000000000000e+00 5.5742875704695154e-02 2.2710679317321927e-02  0.0000000000000000e+00 5.2731755188272819e-02 2.4218793193511803e-02  0.0000000000000000e+00 4.9951786932165357e-02 2.5836500101843542e-02  0.0000000000000000e+00 4.7378291430249866e-02 2.7574574318440105e-02  0.0000000000000000e+00 4.4926368918642511e-02 2.9466444797170407e-02  0.0000000000000000e+00 4.2590013268893369e-02 3.1544385751285181e-02  0.0000000000000000e+00 4.0363470688323709e-02 3.3811537667124532e-02  0.0000000000000000e+00 3.8311731819992145e-02 3.6235836894234937e-02  0.0000000000000000e+00 3.6433961022725038e-02 3.8805273868384990e-02  0.0000000000000000e+00 3.4696450931115820e-02 4.1553752156920483e-02  0.0000000000000000e+00 3.3043667243306860e-02 4.4540206516466702e-02  0.0000000000000000e+00 3.1465622308944813e-02 4.7805248869263406e-02  0.0000000000000000e+00 2.9986025641669543e-02 5.1327420794913273e-02  0.0000000000000000e+00 2.8632663211543091e-02 5.5051095768093389e-02  0.0000000000000000e+00 2.7398283340287276e-02 5.8961960327639680e-02  0.0000000000000000e+00 2.6273008449705450e-02 6.3077053572258693e-02  0.0000000000000000e+00 2.5203501173238288e-02 6.7525719262606546e-02  0.0000000000000000e+00 2.4189187331962021e-02 7.2330357365904457e-02  0.0000000000000000e+00 2.3238537774019432e-02 7.7481565335243807e-02  0.0000000000000000e+00 2.2375568745334851e-02 8.2866274741421345e-02  0.0000000000000000e+00 2.1605258036150859e-02 8.8394568376476884e-02  0.0000000000000000e+00 2.0913621804283512e-02 9.4088835199702403e-02  0.0000000000000000e+00 2.0272586700355075e-02 1.0005095767041154e-01  0.0000000000000000e+00 1.9668942426000566e-02 1.0643066313035404e-01  0.0000000000000000e+00 1.9099293715278465e-02 1.1324443064672066e-01  0.0000000000000000e+00 1.8575642228104539e-02 1.2040263622342726e-01  0.0000000000000000e+00 1.8108563773735549e-02 1.2776287831766059e-01  0.0000000000000000e+00 1.7704177850177322e-02 1.3507778219707431e-01  0.0000000000000000e+00 1.7357375651134405e-02 1.4227089163067994e-01  0.0000000000000000e+00 1.7044789826133416e-02 1.4961228624562381e-01  0.0000000000000000e+00 1.6762308586154115e-02 1.5715231571171143e-01  0.0000000000000000e+00 1.6508156925442875e-02 1.6484877258951661e-01  0.0000000000000000e+00 1.6269952048320189e-02 1.7300034492532834e-01  0.0000000000000000e+00 1.6055905518726803e-02 1.8147742117670412e-01  0.0000000000000000e+00 1.5875365061215462e-02 1.8975568991127417e-01  0.0000000000000000e+00 1.5729501101141498e-02 1.9793409009051627e-01  0.0000000000000000e+00 1.5609020650877097e-02 2.0571840491757243e-01  0.0000000000000000e+00 1.5514872450084396e-02 2.1311534608961069e-01  0.0000000000000000e+00 1.5440355798365351e-02 2.2007304440817371e-01  0.0000000000000000e+00 1.5382085231446813e-02 2.2668041142756429e-01  0.0000000000000000e+00 1.5336238547797519e-02 2.3294353003796861e-01  0.0000000000000000e+00 1.5301004256282145e-02 2.3888414745349118e-01  0.0000000000000000e+00 1.5273529080877701e-02 2.4463446337924866e-01  0.0000000000000000e+00 1.5252110165318562e-02 2.5016760768619123e-01  0.0000000000000000e+00 1.5237898360434739e-02 2.5531092767617380e-01  0.0000000000000000e+00 1.5229872701609581e-02 2.6000927923743233e-01  0.0000000000000000e+00 1.5227512130601148e-02 2.6417478255833332e-01  0.0000000000000000e+00 1.5227547936607879e-02 2.6796875935131409e-01  0.0000000000000000e+00 1.5229899524596842e-02 2.7110227567102735e-01  0.0000000000000000e+00 1.5233182071556743e-02 2.7366250417789906e-01  0.0000000000000000e+00 1.5237980241949035e-02 2.7634698696311155e-01  0.0000000000000000e+00 1.5236882948677477e-02 2.7808218732824164e-01  0.0000000000000000e+00 1.5238427533297155e-02 2.7731459700262484e-01  0.0000000000000000e+00 1.5236636504898897e-02 2.7661209643545381e-01  0.0000000000000000e+00 1.5234188992388648e-02 2.7538134188890545e-01  0.0000000000000000e+00 1.5232426946729714e-02 2.7342655373496783e-01  0.0000000000000000e+00 1.5229868657343885e-02 2.7078593289265468e-01  0.0000000000000000e+00 1.5228624499383977e-02 2.6776111596283830e-01  0.0000000000000000e+00 1.5228847946245508e-02 2.6419571034588185e-01  0.0000000000000000e+00 1.5230094687291775e-02 2.6085182195233075e-01  0.0000000000000000e+00 1.5238102809520166e-02 2.5614964569820470e-01  0.0000000000000000e+00 1.5249169606875378e-02 2.5145445272065375e-01  0.0000000000000000e+00 1.5267239980149819e-02 2.4656095222628693e-01  0.0000000000000000e+00 1.5286063380036203e-02 2.4168946077086026e-01  0.0000000000000000e+00 1.5312202893137700e-02 2.3654799344617744e-01  0.0000000000000000e+00 1.5348530207557245e-02 2.3103751101955924e-01  0.0000000000000000e+00 1.5390856800340851e-02 2.2552727035215650e-01  0.0000000000000000e+00 1.5441197983051122e-02 2.1986662812419974e-01  0.0000000000000000e+00 1.5501677624287561e-02 2.1400527201868294e-01  0.0000000000000000e+00 1.5576266169272452e-02 2.0786809802061715e-01  0.0000000000000000e+00 1.5669714756922928e-02 2.0138700310261926e-01  0.0000000000000000e+00 1.5782995769924656e-02 1.9461891691360658e-01  0.0000000000000000e+00 1.5914477445421685e-02 1.8774656969940537e-01  0.0000000000000000e+00 1.6066565070286601e-02 1.8083280670179047e-01  0.0000000000000000e+00 1.6238204015734382e-02 1.7396970510076734e-01  0.0000000000000000e+00 1.6426238435352174e-02 1.6730205515331245e-01  0.0000000000000000e+00 1.6627385531798086e-02 1.6090066576993825e-01  0.0000000000000000e+00 1.6839457017971800e-02 1.5480652858589694e-01  0.0000000000000000e+00 1.7063335136915811e-02 1.4896291309063836e-01  0.0000000000000000e+00 1.7302507411341130e-02 1.4328780083786810e-01  0.0000000000000000e+00 1.7563380682733987e-02 1.3767422595695283e-01  0.0000000000000000e+00 1.7851961979112291e-02 1.3205852635440871e-01  0.0000000000000000e+00 1.8176456862455660e-02 1.2637586476872870e-01  0.0000000000000000e+00 1.8542000480202363e-02 1.2067469012591023e-01  0.0000000000000000e+00 1.8947081997914124e-02 1.1500170215437112e-01  0.0000000000000000e+00 1.9380530590188235e-02 1.0955259424792432e-01  0.0000000000000000e+00 1.9832939225286922e-02 1.0441321629359529e-01  0.0000000000000000e+00 2.0296986050679717e-02 9.9615567858540269e-02  0.0000000000000000e+00 2.0775026027205844e-02 9.5106107190287281e-02  0.0000000000000000e+00 2.1277244623553151e-02 9.0798133877389595e-02  0.0000000000000000e+00 2.1831942282915746e-02 8.6495601866128397e-02  0.0000000000000000e+00 2.2442022891948514e-02 8.2231367842530087e-02  0.0000000000000000e+00 2.3108248576238957e-02 7.8068472853074805e-02  0.0000000000000000e+00 2.3839635186383563e-02 7.3956996756828985e-02  0.0000000000000000e+00 2.4625575406878746e-02 7.0017727027410950e-02  0.0000000000000000e+00 2.5441584764039044e-02 6.6330620978762675e-02  0.0000000000000000e+00 2.6262263700244936e-02 6.2964508066657945e-02  0.0000000000000000e+00 2.7148477624526438e-02 5.9691671086885188e-02  0.0000000000000000e+00 2.8088735882379593e-02 5.6576494207446960e-02  0.0000000000000000e+00 2.9120455783402954e-02 5.3492908414748547e-02  0.0000000000000000e+00 3.0260668252327514e-02 5.0513330054474254e-02  0.0000000000000000e+00 3.1500255509857730e-02 4.7604762789444144e-02  0.0000000000000000e+00 3.2821008456614169e-02 4.4866629853072611e-02  0.0000000000000000e+00 3.4188059946295743e-02 4.2329990537380541e-02  0.0000000000000000e+00 3.5610946981021907e-02 3.9965948566060734e-02  0.0000000000000000e+00 3.7134008372363358e-02 3.7711663203304623e-02  0.0000000000000000e+00 4.0667027437828192e-02 3.3411085188498765e-02  0.0000000000000000e+00 4.2664938852342023e-02 3.1402441504700097e-02  0.0000000000000000e+00 4.4773291337342619e-02 2.9539959245787669e-02  0.0000000000000000e+00 4.6970746724739575e-02 2.7813826458052710e-02  0.0000000000000000e+00 4.9304245227341045e-02 2.6200835552081945e-02  0.0000000000000000e+00 5.1847877777989548e-02 2.4663233899846634e-02  0.0000000000000000e+00 5.4647648054425346e-02 2.3195810039878341e-02  0.0000000000000000e+00 5.7680310466236541e-02 2.1812300236048011e-02  0.0000000000000000e+00 6.0888849104547088e-02 2.0532988223626026e-02  0.0000000000000000e+00 6.4253749701817880e-02 1.9355102043737474e-02  0.0000000000000000e+00 6.7839728908232491e-02 1.8265227941779462e-02  0.0000000000000000e+00 7.1724454868742016e-02 1.7239428999124996e-02  0.0000000000000000e+00 7.5948001108859325e-02 1.6282571183252208e-02  0.0000000000000000e+00 8.0467990613815460e-02 1.5395237064953599e-02  0.0000000000000000e+00 8.5192216051894323e-02 1.4583971742299926e-02  0.0000000000000000e+00 9.0175093684222524e-02 1.3842376621331356e-02  0.0000000000000000e+00 9.5528681047346201e-02 1.3157033263464013e-02  0.0000000000000000e+00 1.0128016845453869e-01 1.2521205589987278e-02  0.0000000000000000e+00 1.0744111621081513e-01 1.1943785632242809e-02  0.0000000000000000e+00 1.1385004782902988e-01 1.1413879069623765e-02  0.0000000000000000e+00 1.2053718710297785e-01 1.0937668054878138e-02  0.0000000000000000e+00 1.2759324087612284e-01 1.0505158169778478e-02  0.0000000000000000e+00 1.3514142842941640e-01 1.0110906829288282e-02  0.0000000000000000e+00 1.4314270019076042e-01 9.7558086204428719e-03  0.0000000000000000e+00 1.5141396881929978e-01 9.4367549168335001e-03  0.0000000000000000e+00 1.5987022327867997e-01 9.1539962464779918e-03  0.0000000000000000e+00 1.6866062522731456e-01 8.9022471067993318e-03  0.0000000000000000e+00 1.7788269613009225e-01 8.6801863565538085e-03  0.0000000000000000e+00 1.8759016109566859e-01 8.4863897205719307e-03  0.0000000000000000e+00 1.9749349607918412e-01 8.3161075608509712e-03  0.0000000000000000e+00 2.0742618968089566e-01 8.1691067413730972e-03  0.0000000000000000e+00 2.1743401302943283e-01 8.0440446512005954e-03  0.0000000000000000e+00 2.2769671333517186e-01 7.9392355410488041e-03  0.0000000000000000e+00 2.3834425334577555e-01 7.8541328162319533e-03  0.0000000000000000e+00 2.4925029025943299e-01 7.7865541896226737e-03  0.0000000000000000e+00 2.6001972780077159e-01 7.7325327083725389e-03  0.0000000000000000e+00 2.7047882177489191e-01 7.6912278174508363e-03  0.0000000000000000e+00 2.8076992698911651e-01 7.6609857814760839e-03  0.0000000000000000e+00 2.9098934826082024e-01 7.6425445847517785e-03  0.0000000000000000e+00 3.0132188612474869e-01 7.6368958121835022e-03  0.0000000000000000e+00 3.1178758841527587e-01 7.6419115427183819e-03  0.0000000000000000e+00 3.2210180737863353e-01 7.6543587746458067e-03  0.0000000000000000e+00 3.3199956902866090e-01 7.6730367834641116e-03  0.0000000000000000e+00 3.4115053452672139e-01 7.6926468234048929e-03  0.0000000000000000e+00 3.4963114848212745e-01 7.7154352741113869e-03  0.0000000000000000e+00 3.5748118575383453e-01 7.7401833634674223e-03  0.0000000000000000e+00 3.6485920476685418e-01 7.7664473106317912e-03  0.0000000000000000e+00 3.7193084032987744e-01 7.7949588971792582e-03  0.0000000000000000e+00 3.7872297906214619e-01 7.8273396648534197e-03  0.0000000000000000e+00 3.8526165323511607e-01 7.8615536138232460e-03  0.0000000000000000e+00 3.9153589001287964e-01 7.8965626064042647e-03  0.0000000000000000e+00 3.9731450934235912e-01 7.9306667116824364e-03  0.0000000000000000e+00 4.0250572975850213e-01 7.9630305558540705e-03  0.0000000000000000e+00 4.0707818408149049e-01 7.9920986766129267e-03  0.0000000000000000e+00 4.1097391934476946e-01 8.0174082767178190e-03  0.0000000000000000e+00 4.1414615640648333e-01 8.0383746684346002e-03  0.0000000000000000e+00 3.2662913132700439e-01 7.6630211415259306e-03  0.0000000000000000e+00 2.2746684818886295e-02 8.0316367469253483e-02  0.0000000000000000e+00 2.7002096969394124e-01 7.6871562402082557e-03  0.0000000000000000e+00 3.8082487981555328e-02 3.6460765882916558e-02  0.0000000000000000e+00 4.1448494201130126e-01 8.0410157472611751e-03  0.0000000000000000e+00 1.5596250413387164e-02 2.0722692222992711e-01  0.0000000000000000e+00 1.6287349903556816e-01 9.0581544816425493e-03  0.0000000000000000e+00 7.9752458239622903e-02 1.5542313670952079e-02  0.0000000000000000e+00 1.5241893913823535e-02 2.7230163513831679e-01  0.0000000000000000e+00 2.0012657878446381e-02 1.0274851649708212e-01  0.0000000000000000e+00 2.3233069479042767e-01 7.9007037023214530e-03  0.0000000000000000e+00 1.7771509602506268e-02 1.3370794842311692e-01  0.0000000000000000e+00 1.7533761109820068e-02 1.3859431015969598e-01  0.0000000000000000e+00 1.7337795966887443e-01 8.7854515497286668e-03  0.0000000000000000e+00 2.5760387534123783e-02 6.5158419397785397e-02  0.0000000000000000e+00 3.2059217613564756e-01 7.6476406975153127e-03  0.0000000000000000e+00 1.6192704786125091e-02 1.7599587039331371e-01  0.0000000000000000e+00 1.5443380226118882e-02 2.2043622534064458e-01  0.0000000000000000e+00 3.6844897941050242e-01 7.7786857219360496e-03  0.0000000000000000e+00 1.1759328614672888e-01 1.1142134973919462e-02  0.0000000000000000e+00 3.3841295327910470e-02 4.3058602951174779e-02  0.0000000000000000e+00 7.8237807809790907e-02 1.5820145052594711e-02  0.0000000000000000e+00 3.9130680203623125e-01 7.8940344829840619e-03  0.0000000000000000e+00 1.5261558148473787e-02 2.5017588855017614e-01  0.0000000000000000e+00 4.5876580578479834e-02 2.8709420178978380e-02  0.0000000000000000e+00 5.9423050016593107e-02 2.1105386049998669e-02  0.0000000000000000e+00 4.1236569034154791e-01 8.0262020673327120e-03  0.0000000000000000e+00 3.7471834990939784e-01 7.8086419017895370e-03  0.0000000000000000e+00 2.7713166020387214e-02 5.7811103080224802e-02  0.0000000000000000e+00 1.5281734141505025e-02 2.4457554451388958e-01  0.0000000000000000e+00 1.2175318285035552e-01 1.0856875663228094e-02  0.0000000000000000e+00 2.2027018622125055e-01 8.0062769378420624e-03  0.0000000000000000e+00 1.5237482425070436e-02 2.6879561582240680e-01  0.0000000000000000e+00 5.7078663105612229e-02 2.2108358727033723e-02  0.0000000000000000e+00 4.8238087215856602e-02 2.6920855794101087e-02  0.0000000000000000e+00 4.1914719696092534e-01 8.0725478742291606e-03  0.0000000000000000e+00 1.6436869214150093e-02 1.6739760611862209e-01  0.0000000000000000e+00 2.0136823699679465e-02 1.0128946235379625e-01  0.0000000000000000e+00 3.9914647745390897e-01 7.9424807180929809e-03  0.0000000000000000e+00 2.8517853477311722e-01 7.6525400506189129e-03  0.0000000000000000e+00 3.2431977939299361e-02 4.5662458368933581e-02  0.0000000000000000e+00 1.5238734725142859e-02 2.6242216743929886e-01  0.0000000000000000e+00 9.9400047628178015e-02 1.2726809352689447e-02  0.0000000000000000e+00 3.4319833971541758e-01 7.6944222440853069e-03  0.0000000000000000e+00 1.4150802088206751e-01 9.8216318347298694e-03  0.0000000000000000e+00 1.5241920719159533e-02 2.7383170874338458e-01  0.0000000000000000e+00 1.5383268833984208e-02 2.2740625881428048e-01  0.0000000000000000e+00 6.7471562117417727e-02 1.8390277351990780e-02  0.0000000000000000e+00 2.1998755827097920e-02 8.5510223640278826e-02  0.0000000000000000e+00 3.5313011334667488e-01 7.7265929228399477e-03  0.0000000000000000e+00 2.4443259245716162e-01 7.8086623307733038e-03  0.0000000000000000e+00 1.4763523298433986e-01 9.5788558833917042e-03  0.0000000000000000e+00 1.5770852403255042e-02 1.9579015306255290e-01  0.0000000000000000e+00 9.8760791562482866e-02 1.2790223230912359e-02  0.0000000000000000e+00 2.5130712801707339e-02 6.7730077078211631e-02  0.0000000000000000e+00 1.9444986311631829e-01 8.3593186355089728e-03  0.0000000000