<?xml version="1.0"?>
<VTKFile type="UnstructuredGrid"  version="0.1"  >
<UnstructuredGrid>
<Piece  NumberOfPoints="4940" NumberOfCells="9650">
<Points>
<DataArray  type="Float64"  NumberOfComponents="3"  format="ascii">500 250 0  0 250 0  250 500 0  250 0 0  256.8885856082646 499.9050767557906 0  263.7719401218049 499.6203791065173 0  270.6448364229772 499.1461232471188 0  277.5020553257866 498.4826693209355 0  284.3383895508592 497.6305211460281 0  291.1486476865662 496.5903258312597 0  297.9276581259182 495.3628732847843 0  304.6702729675493 493.9490956196674 0  311.3713719748657 492.3500664368026 0  318.0258664141369 490.5670000199653 0  324.6287029687753 488.6012504015818 0  331.1748675330201 486.4543103455647 0  337.6593890460416 484.1278102064655 0  344.0773432429536 481.6235166997244 0  350.4238564271474 478.9433315480048 0  356.694109139292 476.0892900492477 0  362.88333985546 473.0635595140469 0  368.9868485575419 469.8684376402048 0  375.0000003153078 466.5063507640667 0  380.9182288257928 462.9798520074548 0  386.7370398729688 459.2916193419558 0  392.4520147244077 455.444453565817 0  398.0588135356345 451.4412761437442 0  403.5531785622926 447.285127045646 0  408.9309374414144 442.9791624087773 0  414.1880064015299 438.5266521049243 0  419.3203932989752 433.9309773069245 0  424.324200661095 429.1956279150535 0  429.1956286596235 424.3241998957182 0  433.9309780058756 419.3203925397119 0  438.5266527445345 414.1880056671062 0  442.9791630130591 408.9309367076756 0  447.2851276060475 403.5531778422888 0  451.4412766621026 398.0588128303826 0  455.4444540361634 392.4520140460735 0  459.2916197786263 386.7370392045948 0  462.9798524073514 380.9182281752347 0  466.5063511234856 374.9999996927758 0  469.8684379657123 368.9868479560565 0  473.0635598144817 362.8833392617846 0  476.0892903190255 356.6941085676214 0  478.9433317963513 350.4238558609745 0  481.6235169154735 344.0773427117675 0  484.12781039012 337.6593885555221 0  486.4543105028062 331.1748670749914 0  488.601250531677 324.6287025528375 0  490.5670001317469 318.0258660188321 0  492.3500665291326 311.3713716102628 0  493.949095695951 304.6702726271575 0  495.3628733416623 297.9276578347343 0  496.5903258712341 291.1486474470129 0  497.6305211749058 284.3383893426084 0  498.4826693388848 277.502055163614 0  499.1461232580606 270.6448362909296 0  499.6203791109319 263.7719400417897 0  499.9050767571306 256.8885855596534 0  499.9050767559877 243.1114143988867 0  499.6203791069493 236.2280598860241 0  499.1461232485393 229.3551635941651 0  498.4826693235677 222.4979446979962 0  497.6305211491849 215.6616104719064 0  496.5903258357701 208.8513523404629 0  495.3628732906988 202.0723419043604 0  493.9490956264813 195.3297270628552 0  492.3500664487791 188.6286280724281 0  490.5670000344809 181.9741336371959 0  488.6012504175981 175.3712970824318 0  486.4543103623226 168.8251325157939 0  484.1278102222298 162.3406109960628 0  481.6235167152198 155.9226567951971 0  478.9433315621651 149.5761436051346 0  476.0892900516498 143.3058908657982 0  473.063559513628 137.1166601437124 0  469.8684376406648 131.0131514433083 0  466.5063507675389 124.9999996907064 0  462.9798520124137 119.0817711822745 0  459.2916193464549 113.2629601339176 0  455.4444535642773 107.5479852733717 0  451.4412761528674 101.9411864767781 0  447.2851270583545 96.44682145403524 0  442.9791624165781 91.06906256805769 0  438.5266521117469 85.81199360630404 0  433.9309773156125 80.67960671046254 0  429.1956279150353 75.67579933888632 0  424.3241998888952 70.80437133373906 0  419.3203925223282 66.06902197812161 0  414.1880056411937 61.47334723289828 0  408.9309366751728 57.0208369601728 0  403.5531778009394 52.71487236176898 0  398.058812796452 48.55872331295853 0  392.4520140187753 44.55554594490843 0  386.7370391799677 40.70838020528396 0  380.9182281475119 37.02014757560744 0  374.9999996718656 33.49364886444181 0  368.9868479340393 30.13156202237255 0  362.8833392380029 26.93644017348339 0  356.6941085456942 23.91070967062674 0  350.4238558420009 21.0566681953261 0  344.0773426899492 18.37648307566465 0  337.6593885328982 15.87218960140942 0  331.1748670549786 13.54568949032341 0  324.6287025315056 11.39874946165088 0  318.0258660010876 9.432999863235466 0  311.3713716017894 7.649933468721599 0  304.6702726190621 6.050904302234756 0  297.9276578269805 4.637126656823085 0  291.148647441857 3.409674127905504 0  284.3383893425031 2.369478825079682 0  277.502055159398 1.517330660648639 0  270.6448362875833 0.853876741662134 0  263.7719400401456 0.3796208889774277 0  256.8885855592052 0.09492324285704967 0  243.1114143979462 0.09492324403817065 0  236.2280598850882 0.3796208931023841 0  229.3551635938215 0.8538767514891958 0  222.4979446968584 1.517330676558146 0  215.6616104703111 2.369478851036291 0  208.8513523382973 3.409674164591252 0  202.0723419066374 4.637126708856528 0  195.3297270659513 6.050904372824903 0  188.628628074828 7.649933550613184 0  181.9741336377093 9.432999965373938 0  175.3712970793675 11.39874958336037 0  168.8251325057572 13.54568964112298 0  162.340610986655 15.87218978129263 0  155.9226567874317 18.37648328793418 0  149.576143602509 21.05666843898663 0  143.3058908718157 23.91070994551046 0  137.1166601505524 26.93644048291054 0  131.0131514451933 30.13156235831508 0  124.9999996848412 33.49364923584736 0  119.0817711715717 37.0201479941652 0  113.2629601211624 40.70838066187849 0  107.5479852622251 44.55554644345162 0  101.9411864693332 48.55872385260452 0  96.44682143286516 52.71487295812284 0  91.06906254351222 57.02083760363669 0  85.81199358272519 61.4733479087879 0  80.67960667988106 66.06902271253972 0  75.67579930062769 70.80437212218331 0  70.80437129287643 75.67580015310926 0  66.06902193673014 80.67960752263491 0  61.47334718684866 85.81199441168215 0  57.02083692524275 91.0690633672404 0  52.71487232786438 96.44682224262129 0  48.55872328070024 101.941187247437 0  44.55554591578033 107.5479860232332 0  40.7083801742321 113.2629608675606 0  37.02014754791168 119.0817718975441 0  33.49364883372994 125.000000381329 0  30.13156199866361 131.0131521097709 0  26.9364401549829 137.1166607985551 0  23.91070965524918 143.3058914868915 0  21.05666818346614 149.576144185037 0  18.37648306853811 155.9226573275967 0  15.8721895918909 162.3406114925245 0  13.54568948170046 168.8251329701392 0  11.39874945301878 175.3712974960928 0  9.432999857087736 181.9741340206533 0  7.649933466342702 188.6286284076045 0  6.050904301250966 195.3297273853278 0  4.637126656808988 202.0723421730917 0  3.409674127767772 208.8513525589684 0  2.369478824521138 215.6616106615248 0  1.517330660909465 222.4979448382452 0  0.8538767414496533 229.355163714981 0  0.3796208887135322 236.2280599646376 0  0.09492324266324204 243.1114144478261 0  0.0949232442452228 256.8885856095658 0  0.3796208935834784 263.7719401236316 0  0.8538767530323526 270.6448364248016 0  1.517330679476544 277.5020553295092 0  2.369478854618649 284.3383895555228 0  3.409674170191892 291.1486476952655 0  4.6371267162381 297.9276581311522 0  6.050904381420935 304.6702729724059 0  7.649933562385399 311.3713719716595 0  9.43299997979841 318.0258664133013 0  11.3987495994252 324.6287029719946 0  13.54568965885832 331.174867545904 0  15.87218979367188 337.6593890464085 0  18.37648329843151 344.0773432384132 0  21.05666844777872 350.423856417535 0  23.91070995156048 356.6941091410045 0  26.93644048988043 362.8833398632205 0  30.13156235982007 368.9868485575877 0  33.49364924138357 375.0000003247478 0  37.0201480006036 380.9182288389023 0  40.70838066758398 386.7370398875706 0  44.55554644477201 392.4520147396792 0  48.55872386086904 398.0588135419111 0  52.71487295981296 403.5531785693063 0  57.02083760525949 408.9309374584583 0  61.47334790862246 414.1880064170849 0  66.06902271205095 419.320393319588 0  70.80437211216579 424.3242006890749 0  75.67580013809859 429.195628692521 0  80.6796075127923 433.930978054209 0  85.81199439754931 438.5266528008431 0  91.06906334717917 442.9791630582355 0  96.44682221438322 447.2851276501571 0  101.9411872243843 451.441276702356 0  107.5479859945825 455.4444540643537 0  113.2629608446994 459.2916198108319 0  119.0817718768376 462.9798524393601 0  125.0000003647644 466.5063511567065 0  131.0131521012763 469.8684379967393 0  137.1166607840049 473.0635598376539 0  143.3058914748804 476.0892903390826 0  149.5761441732679 478.9433318113714 0  155.9226573130112 481.6235169255377 0  162.3406114779862 484.1278104026658 0  168.8251329570439 486.4543105138039 0  175.3712974805475 488.601250542119 0  181.9741340135204 490.5670001408953 0  188.6286284005059 492.3500665318597 0  195.3297273788229 493.9490956972913 0  202.0723421640089 495.3628733414168 0  208.8513525529672 496.5903258712308 0  215.6616106544547 497.6305211744985 0  222.4979448327038 498.4826693384772 0  229.3551637102845 499.1461232581612 0  236.2280599621369 499.6203791111485 0  243.1114144470173 499.9050767573145 0  155.2373389820306 474.8197567317462 0  25.36256300907667 153.9152755065208 0  432.3709625126712 412.6214396304305 0  6.013151705810699 246.637913163471 0  246.6379131630491 493.986848294322 0  338.6995838441862 22.68244767887072 0  477.3175523131281 338.6995838660569 0  493.9868482700757 246.6379131399102 0  246.6201155078769 6.218451882810491 0  417.6179310263282 72.7156044707053 0  102.2232990934413 445.0100869616822 0  63.66330858966404 92.20354579482142 0  391.3105220491464 50.73522820883105 0  72.79295043967942 418.0702734974704 0  448.290574428537 108.25674339002 0  402.4604651193511 440.7462829841712 0  97.55317348421397 59.11376320116034 0  136.7376477664901 33.58246472647134 0  363.3288394375288 465.6947312928271 0  44.0678766556007 381.0860953771871 0  469.6905266180034 142.3890690100806 0  22.68244791668644 338.6995843487432 0  338.699584349159 477.317552078365 0  173.389488083762 18.6681884918202 0  483.4809734778481 179.7121987795732 0  13.50237455842738 306.4709525540879 0  305.9825168523021 487.24416992
[...]
<PointData  Vectors="f_12"> 
<DataArray  type="Float64"  Name="f_12"  NumberOfComponents="3" format="ascii">0.0000000000000000e+00 1.4905550406483228e-01 9.5329270747193627e-03  0.0000000000000000e+00 7.0550077250879972e-02 1.7495276714968016e-02  0.0000000000000000e+00 6.0927058888991081e-01 1.0386042972754571e-02  0.0000000000000000e+00 1.9146693832857303e-02 1.1193736417681956e-01  0.0000000000000000e+00 6.1123353921146650e-01 1.0421654020050030e-02  0.0000000000000000e+00 6.1244190398380016e-01 1.0443715139490477e-02  0.0000000000000000e+00 6.1309983814365265e-01 1.0455691671987720e-02  0.0000000000000000e+00 6.1308633119418066e-01 1.0455472463568675e-02  0.0000000000000000e+00 6.1247408179045570e-01 1.0444215739205754e-02  0.0000000000000000e+00 6.1125687930832295e-01 1.0421853091001800e-02  0.0000000000000000e+00 6.0943199054914965e-01 1.0388512609433121e-02  0.0000000000000000e+00 6.0701483749270013e-01 1.0344724969133846e-02  0.0000000000000000e+00 6.0399165892020146e-01 1.0290461753698053e-02  0.0000000000000000e+00 6.0034248450743888e-01 1.0225807569130628e-02  0.0000000000000000e+00 5.9599446174702264e-01 1.0149828361682033e-02  0.0000000000000000e+00 5.9132351334515754e-01 1.0069424536834199e-02  0.0000000000000000e+00 5.8585745768006703e-01 9.9775592803663903e-03  0.0000000000000000e+00 5.8016203495474916e-01 9.8843590483475661e-03  0.0000000000000000e+00 5.7409440965876402e-01 9.7876009189067949e-03  0.0000000000000000e+00 5.6778625117534509e-01 9.6897302089584050e-03  0.0000000000000000e+00 5.6132946397588002e-01 9.5931661130941800e-03  0.0000000000000000e+00 5.5461737358138263e-01 9.4969894316180165e-03  0.0000000000000000e+00 5.4769615118220538e-01 9.4013467486252569e-03  0.0000000000000000e+00 5.4055066961041964e-01 9.3061252319735673e-03  0.0000000000000000e+00 5.3294577382092267e-01 9.2082713995312055e-03  0.0000000000000000e+00 5.2466959586801654e-01 9.1054017488432209e-03  0.0000000000000000e+00 5.1562372020889524e-01 8.9957282898218745e-03  0.0000000000000000e+00 5.0599149982984226e-01 8.8824156584072500e-03  0.0000000000000000e+00 4.9578201284346507e-01 8.7668720060776438e-03  0.0000000000000000e+00 4.8510427083774915e-01 8.6505056419202003e-03  0.0000000000000000e+00 4.7445859005725172e-01 8.5411707547859983e-03  0.0000000000000000e+00 4.6389326106756285e-01 8.4402428716345984e-03  0.0000000000000000e+00 4.5345977279184735e-01 8.3480988914939984e-03  0.0000000000000000e+00 4.4300580337814949e-01 8.2619153017910712e-03  0.0000000000000000e+00 4.3213642423564963e-01 8.1785043620081245e-03  0.0000000000000000e+00 4.2078463995813148e-01 8.0966059864880091e-03  0.0000000000000000e+00 4.0892927053685130e-01 8.0148117729183527e-03  0.0000000000000000e+00 3.9663468206283770e-01 7.9357389505184343e-03  0.0000000000000000e+00 3.8427304886931063e-01 7.8644165426040510e-03  0.0000000000000000e+00 3.7225899239818405e-01 7.8047687626310791e-03  0.0000000000000000e+00 3.6058589099931138e-01 7.7572510871171171e-03  0.0000000000000000e+00 3.4890260372153542e-01 7.7190291903730703e-03  0.0000000000000000e+00 3.3697711393406138e-01 7.6868166433123252e-03  0.0000000000000000e+00 3.2481390441141439e-01 7.6622623227609035e-03  0.0000000000000000e+00 3.1248420251367431e-01 7.6453948143930216e-03  0.0000000000000000e+00 3.0032666064646429e-01 7.6394288008673544e-03  0.0000000000000000e+00 2.8860042908115369e-01 7.6475503563185835e-03  0.0000000000000000e+00 2.7730236995547736e-01 7.6717958943178059e-03  0.0000000000000000e+00 2.6604023651133213e-01 7.7085386966651535e-03  0.0000000000000000e+00 2.5476545209984380e-01 7.7568790162012187e-03  0.0000000000000000e+00 2.4349625797717819e-01 7.8199053187545890e-03  0.0000000000000000e+00 2.3249529208281955e-01 7.8967300962627853e-03  0.0000000000000000e+00 2.2197189277588314e-01 7.9930386524980773e-03  0.0000000000000000e+00 2.1189754192640481e-01 8.1078337196138824e-03  0.0000000000000000e+00 2.0211381607803630e-01 8.2415909767056626e-03  0.0000000000000000e+00 1.9246743722856072e-01 8.3969884105383613e-03  0.0000000000000000e+00 1.8291388785144583e-01 8.5730009662115924e-03  0.0000000000000000e+00 1.7370371404767704e-01 8.7734754745666683e-03  0.0000000000000000e+00 1.6501175671394286e-01 8.9905596417690654e-03  0.0000000000000000e+00 1.5696330704128622e-01 9.2370424505541227e-03  0.0000000000000000e+00 1.4126468701974212e-01 9.8296680056596010e-03  0.0000000000000000e+00 1.3375683036385358e-01 1.0172861200801553e-02  0.0000000000000000e+00 1.2675495149780225e-01 1.0551373128930746e-02  0.0000000000000000e+00 1.2013138686210331e-01 1.0957465797387144e-02  0.0000000000000000e+00 1.1390237336647503e-01 1.1410561020997164e-02  0.0000000000000000e+00 1.0783382661773271e-01 1.1901570450846468e-02  0.0000000000000000e+00 1.0200074388950639e-01 1.2448295348756820e-02  0.0000000000000000e+00 9.6484101413315856e-02 1.3040135464918542e-02  0.0000000000000000e+00 9.1358519813532435e-02 1.3678092385363015e-02  0.0000000000000000e+00 8.6584726504057852e-02 1.4366741204908459e-02  0.0000000000000000e+00 8.2019065523852797e-02 1.5115124209655540e-02  0.0000000000000000e+00 7.7645236722105410e-02 1.5936580820469132e-02  0.0000000000000000e+00 7.3459965756514742e-02 1.6830960539965075e-02  0.0000000000000000e+00 6.9580100810951062e-02 1.7787982163709977e-02  0.0000000000000000e+00 6.6007841651749485e-02 1.8803690645233490e-02  0.0000000000000000e+00 6.2681902278880680e-02 1.9891331758487282e-02  0.0000000000000000e+00 5.9504085834547041e-02 2.1070225236657122e-02  0.0000000000000000e+00 5.6455171262820833e-02 2.2355910406038390e-02  0.0000000000000000e+00 5.3579369847289178e-02 2.3740616660507790e-02  0.0000000000000000e+00 5.0929190720635169e-02 2.5204233828822462e-02  0.0000000000000000e+00 4.8494401159151018e-02 2.6741701078691636e-02  0.0000000000000000e+00 4.6255209082164045e-02 2.8360301531112336e-02  0.0000000000000000e+00 4.4112177159819230e-02 3.0106977078633666e-02  0.0000000000000000e+00 4.2064997490476132e-02 3.1988882639387234e-02  0.0000000000000000e+00 4.0129080192198192e-02 3.4003243661161059e-02  0.0000000000000000e+00 3.8350514324909601e-02 3.6108841208523978e-02  0.0000000000000000e+00 3.6741835653524277e-02 3.8272513346075919e-02  0.0000000000000000e+00 3.5275399049097614e-02 4.0503074636671459e-02  0.0000000000000000e+00 3.3900105046841655e-02 4.2835845108601271e-02  0.0000000000000000e+00 3.2584174654253978e-02 4.5330013147512949e-02  0.0000000000000000e+00 3.1323595605618045e-02 4.7990023313582986e-02  0.0000000000000000e+00 3.0140670509186163e-02 5.0783442038012709e-02  0.0000000000000000e+00 2.9057326330659678e-02 5.3658258293679005e-02  0.0000000000000000e+00 2.8092065872665811e-02 5.6519418699005737e-02  0.0000000000000000e+00 2.7237192494346998e-02 5.9337441475322009e-02  0.0000000000000000e+00 2.6442746935245134e-02 6.2213891956988669e-02  0.0000000000000000e+00 2.5697451736321267e-02 6.5169389583580692e-02  0.0000000000000000e+00 2.5001244906946139e-02 6.8186894379436175e-02  0.0000000000000000e+00 2.4322701290436011e-02 7.1379866398695840e-02  0.0000000000000000e+00 2.3676439849392081e-02 7.4702901630001720e-02  0.0000000000000000e+00 2.3098392824346854e-02 7.7950948273601328e-02  0.0000000000000000e+00 2.2579772784534338e-02 8.1171044812522089e-02  0.0000000000000000e+00 2.2120647641306588e-02 8.4238896608658451e-02  0.0000000000000000e+00 2.1717003854175146e-02 8.7161663961466698e-02  0.0000000000000000e+00 2.1361435446920408e-02 8.9914503484446462e-02  0.0000000000000000e+00 2.1043969117141011e-02 9.2532502831750019e-02  0.0000000000000000e+00 2.0758613059759852e-02 9.5016036385833044e-02  0.0000000000000000e+00 2.0501164225519033e-02 9.7373488635682043e-02  0.0000000000000000e+00 2.0262720686815776e-02 9.9656053172763534e-02  0.0000000000000000e+00 2.0041660379577241e-02 1.0185175682834254e-01  0.0000000000000000e+00 1.9844498592811854e-02 1.0389482447255033e-01  0.0000000000000000e+00 1.9671816476767114e-02 1.0576314639016489e-01  0.0000000000000000e+00 1.9525051380659648e-02 1.0742370652288603e-01  0.0000000000000000e+00 1.9394843634912617e-02 1.0893666602723077e-01  0.0000000000000000e+00 1.9290258767544765e-02 1.1018698046346315e-01  0.0000000000000000e+00 1.9206348683457310e-02 1.1120888779642131e-01  0.0000000000000000e+00 1.9121185039129684e-02 1.1228455015021740e-01  0.0000000000000000e+00 1.9061258189512847e-02 1.1296883543607614e-01  0.0000000000000000e+00 1.9089016487544349e-02 1.1266843956051185e-01  0.0000000000000000e+00 1.9110867928124980e-02 1.1238728139077159e-01  0.0000000000000000e+00 1.9149810806110706e-02 1.1189474329133731e-01  0.0000000000000000e+00 1.9214056044477391e-02 1.1111592858337509e-01  0.0000000000000000e+00 1.9301204190319561e-02 1.1006306927959653e-01  0.0000000000000000e+00 1.9403125735384143e-02 1.0885690702320112e-01  0.0000000000000000e+00 1.9525996256064423e-02 1.0743577915574748e-01  0.0000000000000000e+00 1.9642520337110378e-02 1.0610065426062039e-01  0.0000000000000000e+00 1.9815220323852783e-02 1.0423202153261063e-01  0.0000000000000000e+00 1.9992984806143355e-02 1.0236579017125362e-01  0.0000000000000000e+00 2.0186465734115554e-02 1.0042370195594240e-01  0.0000000000000000e+00 2.0382529510058669e-02 9.8486009079557110e-02  0.0000000000000000e+00 2.0598941907643463e-02 9.6443716298515988e-02  0.0000000000000000e+00 2.0843034293139516e-02 9.4259507716632704e-02  0.0000000000000000e+00 2.1097311239944010e-02 9.2074969477013602e-02  0.0000000000000000e+00 2.1370013705732684e-02 8.9830745313967716e-02  0.0000000000000000e+00 2.1666651886129554e-02 8.7508848310180076e-02  0.0000000000000000e+00 2.1995608176253477e-02 8.5082375532674961e-02  0.0000000000000000e+00 2.2367059649172023e-02 8.2525614817680490e-02  0.0000000000000000e+00 2.2781360551660197e-02 7.9860504278461433e-02  0.0000000000000000e+00 2.3231063155239182e-02 7.7157476820794477e-02  0.0000000000000000e+00 2.3717822859685253e-02 7.4442702791200244e-02  0.0000000000000000e+00 2.4237788967017511e-02 7.1751020032556734e-02  0.0000000000000000e+00 2.4781249397010097e-02 6.9137802907983978e-02  0.0000000000000000e+00 2.5341119591152674e-02 6.6629273525277991e-02  0.0000000000000000e+00 2.5912414198098647e-02 6.4240845469793306e-02  0.0000000000000000e+00 2.6498897821135067e-02 6.1949810607302258e-02  0.0000000000000000e+00 2.7109399612630196e-02 5.9724643087678907e-02  0.0000000000000000e+00 2.7758754526290022e-02 5.7524163953829685e-02  0.0000000000000000e+00 2.8459927851165405e-02 5.5324050469912914e-02  0.0000000000000000e+00 2.9230001556779218e-02 5.3100521972858972e-02  0.0000000000000000e+00 3.0075942340266358e-02 5.0873634248346344e-02  0.0000000000000000e+00 3.0995408872814191e-02 4.8659495167914096e-02  0.0000000000000000e+00 3.1962085000510274e-02 4.6532864045767869e-02  0.0000000000000000e+00 3.2956634668169511e-02 4.4525922989724132e-02  0.0000000000000000e+00 3.3965241841682897e-02 4.2649764914439607e-02  0.0000000000000000e+00 3.4994102156473632e-02 4.0884099547338466e-02  0.0000000000000000e+00 3.6063320188084592e-02 3.9196772006884033e-02  0.0000000000000000e+00 3.7232198763156955e-02 3.7511506141613499e-02  0.0000000000000000e+00 3.8503686512675127e-02 3.5842668156971229e-02  0.0000000000000000e+00 3.9876489061418642e-02 3.4214947631823360e-02  0.0000000000000000e+00 4.1372048071708967e-02 3.2606529256424530e-02  0.0000000000000000e+00 4.2963190177761686e-02 3.1066005754953215e-02  0.0000000000000000e+00 4.4605628852191485e-02 2.9621419843732351e-02  0.0000000000000000e+00 4.6249212980099846e-02 2.8299266046952938e-02  0.0000000000000000e+00 4.8013845922913627e-02 2.7012830117225939e-02  0.0000000000000000e+00 4.9873979272142994e-02 2.5787426678442204e-02  0.0000000000000000e+00 5.1907198135511853e-02 2.4573615186711702e-02  0.0000000000000000e+00 5.4130718848915599e-02 2.3404743125531480e-02  0.0000000000000000e+00 5.6540967422900976e-02 2.2261021590772742e-02  0.0000000000000000e+00 5.9091814037429011e-02 2.1184221027173451e-02  0.0000000000000000e+00 6.1723027780781967e-02 2.0183975220287458e-02  0.0000000000000000e+00 6.4451850422712870e-02 1.9249336946394462e-02  0.0000000000000000e+00 6.7360665387289118e-02 1.8357570567768988e-02  0.0000000000000000e+00 7.4049108730642521e-02 1.6661092770955864e-02  0.0000000000000000e+00 7.7804645301452924e-02 1.5868998783409548e-02  0.0000000000000000e+00 8.1748308701384387e-02 1.5134319606441220e-02  0.0000000000000000e+00 8.5846147578803503e-02 1.4450928925763910e-02  0.0000000000000000e+00 9.0177933670091748e-02 1.3812669339061952e-02  0.0000000000000000e+00 9.4875964781913194e-02 1.3206078940133262e-02  0.0000000000000000e+00 1.0001592104626972e-01 1.2630335644357683e-02  0.0000000000000000e+00 1.0555316504817279e-01 1.2089147140092467e-02  0.0000000000000000e+00 1.1138157129108553e-01 1.1589294299594634e-02  0.0000000000000000e+00 1.1746587623946102e-01 1.1129400567074095e-02  0.0000000000000000e+00 1.2391165712303823e-01 1.0706947697488317e-02  0.0000000000000000e+00 1.3085273003740835e-01 1.0312514054673363e-02  0.0000000000000000e+00 1.3834274800456278e-01 9.9501736026243858e-03  0.0000000000000000e+00 1.4630454009647390e-01 9.6178847490017740e-03  0.0000000000000000e+00 1.5457318619668925e-01 9.3163773944972775e-03  0.0000000000000000e+00 1.6323233756332919e-01 9.0452562235971284e-03  0.0000000000000000e+00 1.7246051332167575e-01 8.8016350404173643e-03  0.0000000000000000e+00 1.8229137543008200e-01 8.5821014815896622e-03  0.0000000000000000e+00 1.9271714993655439e-01 8.3927000230328841e-03  0.0000000000000000e+00 2.0347532286072725e-01 8.2224501584963819e-03  0.0000000000000000e+00 2.1459250891011772e-01 8.0773867492545549e-03  0.0000000000000000e+00 2.2620565266508222e-01 7.9551340310316902e-03  0.0000000000000000e+00 2.3848760936694635e-01 7.8555026638084668e-03  0.0000000000000000e+00 2.5135126615929715e-01 7.7785272661065425e-03  0.0000000000000000e+00 2.6449567590620182e-01 7.7187431459572655e-03  0.0000000000000000e+00 2.7777596127518378e-01 7.6760425620500863e-03  0.0000000000000000e+00 2.9140866480626748e-01 7.6511676111937540e-03  0.0000000000000000e+00 3.0551208482305625e-01 7.6462117233106388e-03  0.0000000000000000e+00 3.2013889571942122e-01 7.6616687129944950e-03  0.0000000000000000e+00 3.3484909717276762e-01 7.6893113806006360e-03  0.0000000000000000e+00 3.4939456080026371e-01 7.7273746697144631e-03  0.0000000000000000e+00 3.6383665237930812e-01 7.7772462437994292e-03  0.0000000000000000e+00 3.7841861234889729e-01 7.8415562739006083e-03  0.0000000000000000e+00 3.9329822065729364e-01 7.9227989301379892e-03  0.0000000000000000e+00 4.0828550701342908e-01 8.0176601637310559e-03  0.0000000000000000e+00 4.2284807049222900e-01 8.1176410978643521e-03  0.0000000000000000e+00 4.3677141586374085e-01 8.2205848966793917e-03  0.0000000000000000e+00 4.5025963082307086e-01 8.3279012501698904e-03  0.0000000000000000e+00 4.6344159289592929e-01 8.4427114800067708e-03  0.0000000000000000e+00 4.7654884673897413e-01 8.5691065996197479e-03  0.0000000000000000e+00 4.8960473847295649e-01 8.7055968252728478e-03  0.0000000000000000e+00 5.0226222403880449e-01 8.8458288329014579e-03  0.0000000000000000e+00 5.1422001498688852e-01 8.9854999728416242e-03  0.0000000000000000e+00 5.2511839376128056e-01 9.1158363292614432e-03  0.0000000000000000e+00 5.3508186980094163e-01 9.2403061699066688e-03  0.0000000000000000e+00 5.4418655512109448e-01 9.3588797801269462e-03  0.0000000000000000e+00 5.5264055626862352e-01 9.4730244339873999e-03  0.0000000000000000e+00 5.6064892345592665e-01 9.5857059378496815e-03  0.0000000000000000e+00 5.6825029376275948e-01 9.6991918505856169e-03  0.0000000000000000e+00 5.7548572459857172e-01 9.8118472046573139e-03  0.0000000000000000e+00 5.8235700542900981e-01 9.9222220781093259e-03  0.0000000000000000e+00 5.8862351955949410e-01 1.0025917707827191e-02  0.0000000000000000e+00 5.9420352513708485e-01 1.0120962374627193e-02  0.0000000000000000e+00 5.9908031452022525e-01 1.0205341258548724e-02  0.0000000000000000e+00 6.0320890598382571e-01 1.0277768235623626e-02  0.0000000000000000e+00 6.0655143837737169e-01 1.0337183753191764e-02  0.0000000000000000e+00 5.0775320090132636e-01 8.9100930181964175e-03  0.0000000000000000e+00 3.9129536578651279e-02 3.5097883105263641e-02  0.0000000000000000e+00 4.3616206506279270e-01 8.2096959013191334e-03  0.0000000000000000e+00 6.9159194981935276e-02 1.7866112615317609e-02  0.0000000000000000e+00 6.0690840873793295e-01 1.0344051012655576e-02  0.0000000000000000e+00 2.2045831491409127e-02 8.4850519625345996e-02  0.0000000000000000e+00 2.8243933322968984e-01 7.6606130199515640e-03  0.0000000000000000e+00 1.4502691147151300e-01 9.6788001560967514e-03  0.0000000000000000e+00 1.9263283375144470e-02 1.1069741511722148e-01  0.0000000000000000e+00 3.3332770440361016e-02 4.3894429734945395e-02  0.0000000000000000e+00 3.8492165961309321e-01 7.8763893465657250e-03  0.0000000000000000e+00 2.8258832772548505e-02 5.5978726356503763e-02  0.0000000000000000e+00 2.7670598652799961e-02 5.7902429529617661e-02  0.0000000000000000e+00 2.9864557298930489e-01 7.6475863527130121e-03  0.0000000000000000e+00 4.5227222878613110e-02 2.9179927109789564e-02  0.0000000000000000e+00 5.0042474416536009e-01 8.8197204182068889e-03  0.0000000000000000e+00 2.4089976545255687e-02 7.2557994715963622e-02  0.0000000000000000e+00 2.1351423347371078e-02 9.0073562971477367e-02  0.0000000000000000e+00 5.5672195137430003e-01 9.5274851994331406e-03  0.0000000000000000e+00 2.0970778165969917e-01 8.1397425380543252e-03  0.0000000000000000e+00 6.1038148499325068e-02 2.0486685424485115e-02  0.0000000000000000e+00 1.4238017274103529e-01 9.7779621798523928e-03  0.0000000000000000e+00 5.8211099136784383e-01 9.9166292797850907e-03  0.0000000000000000e+00 2.0052133414942660e-02 1.0188087277402365e-01  0.0000000000000000e+00 8.3788734263320758e-02 1.4816792720272892e-02  0.0000000000000000e+00 1.0871822396266963e-01 1.1814697715924654e-02  0.0000000000000000e+00 6.0468066246481766e-01 1.0303374817535356e-02  0.0000000000000000e+00 5.6378008472139785e-01 9.6328395054121243e-03  0.0000000000000000e+00 4.9129029866113949e-02 2.6276090590020940e-02  0.0000000000000000e+00 2.0274360751325899e-02 9.9652507221332398e-02  0.0000000000000000e+00 2.1658666915215619e-01 8.0530208903776043e-03  0.0000000000000000e+00 3.6787841453154002e-01 7.7869601855254525e-03  0.0000000000000000e+00 1.9377853098859570e-02 1.0929297604723648e-01  0.0000000000000000e+00 1.0443858834269509e-01 1.2212748122516558e-02  0.0000000000000000e+00 8.8198199768110774e-02 1.4098945197261091e-02  0.0000000000000000e+00 6.1178838736165786e-01 1.0432172101944725e-02  0.0000000000000000e+00 2.4791528063286113e-02 6.9193795639807598e-02  0.0000000000000000e+00 3.3613742413519734e-02 4.3309700321665083e-02  0.0000000000000000e+00 5.9059852584601613e-01 1.0059970947887869e-02  0.0000000000000000e+00 4.5597624798263309e-01 8.3774969982728514e-03  0.0000000000000000e+00 5.8337343104396359e-02 2.1500376543883544e-02  0.0000000000000000e+00 1.9598522253228771e-02 1.0675319567269248e-01  0.0000000000000000e+00 1.7906661174309865e-01 8.6548698551386916e-03  0.0000000000000000e+00 5.2754007516394275e-01 9.1415263807316550e-03  0.0000000000000000e+00 2.4871753579434955e-01 7.7902667510618383e-03  0.0000000000000000e+00 1.9211280745812596e-02 1.1130256016912994e-01  0.0000000000000000e+00 2.1018694353037309e-02 9.2836298995110533e-02  0.0000000000000000e+00 1.2323441855683091e-01 1.0761200098289583e-02  0.0000000000000000e+00 3.7564124246849961e-02 3.7145851101711841e-02  0.0000000000000000e+00 5.3915225569355929e-01 9.2934340455380227e-03  0.0000000000000000e+00 4.0168884167038565e-01 7.9686184647066987e-03  0.0000000000000000e+00 2.5850803814718060e-01 7.7454763910381795e-03  0.0000000000000000e+00 2.2718682305000591e-02 8.0338027535036008e-02  0.0000000000000000e+00 1.7799370994579286e-01 8.6750985707582853e-03  0.0000000000000000e+00 4.3977508051833716e-02 3.0173472956938025e-02  0.0000000000000000e+00 3.3033605183883402e-01 7.6733830985933754e-03  0.0000000000