<?xml version="1.0"?>
<VTKFile type="UnstructuredGrid"  version="0.1"  >
<UnstructuredGrid>
<Piece  NumberOfPoints="4940" NumberOfCells="9650">
<Points>
<DataArray  type="Float64"  NumberOfComponents="3"  format="ascii">500 250 0  0 250 0  250 500 0  250 0 0  256.8885856082646 499.9050767557906 0  263.7719401218049 499.6203791065173 0  270.6448364229772 499.1461232471188 0  277.5020553257866 498.4826693209355 0  284.3383895508592 497.6305211460281 0  291.1486476865662 496.5903258312597 0  297.9276581259182 495.3628732847843 0  304.6702729675493 493.9490956196674 0  311.3713719748657 492.3500664368026 0  318.0258664141369 490.5670000199653 0  324.6287029687753 488.6012504015818 0  331.1748675330201 486.4543103455647 0  337.6593890460416 484.1278102064655 0  344.0773432429536 481.6235166997244 0  350.4238564271474 478.9433315480048 0  356.694109139292 476.0892900492477 0  362.88333985546 473.0635595140469 0  368.9868485575419 469.8684376402048 0  375.0000003153078 466.5063507640667 0  380.9182288257928 462.9798520074548 0  386.7370398729688 459.2916193419558 0  392.4520147244077 455.444453565817 0  398.0588135356345 451.4412761437442 0  403.5531785622926 447.285127045646 0  408.9309374414144 442.9791624087773 0  414.1880064015299 438.5266521049243 0  419.3203932989752 433.9309773069245 0  424.324200661095 429.1956279150535 0  429.1956286596235 424.3241998957182 0  433.9309780058756 419.3203925397119 0  438.5266527445345 414.1880056671062 0  442.9791630130591 408.9309367076756 0  447.2851276060475 403.5531778422888 0  451.4412766621026 398.0588128303826 0  455.4444540361634 392.4520140460735 0  459.2916197786263 386.7370392045948 0  462.9798524073514 380.9182281752347 0  466.5063511234856 374.9999996927758 0  469.8684379657123 368.9868479560565 0  473.0635598144817 362.8833392617846 0  476.0892903190255 356.6941085676214 0  478.9433317963513 350.4238558609745 0  481.6235169154735 344.0773427117675 0  484.12781039012 337.6593885555221 0  486.4543105028062 331.1748670749914 0  488.601250531677 324.6287025528375 0  490.5670001317469 318.0258660188321 0  492.3500665291326 311.3713716102628 0  493.949095695951 304.6702726271575 0  495.3628733416623 297.9276578347343 0  496.5903258712341 291.1486474470129 0  497.6305211749058 284.3383893426084 0  498.4826693388848 277.502055163614 0  499.1461232580606 270.6448362909296 0  499.6203791109319 263.7719400417897 0  499.9050767571306 256.8885855596534 0  499.9050767559877 243.1114143988867 0  499.6203791069493 236.2280598860241 0  499.1461232485393 229.3551635941651 0  498.4826693235677 222.4979446979962 0  497.6305211491849 215.6616104719064 0  496.5903258357701 208.8513523404629 0  495.3628732906988 202.0723419043604 0  493.9490956264813 195.3297270628552 0  492.3500664487791 188.6286280724281 0  490.5670000344809 181.9741336371959 0  488.6012504175981 175.3712970824318 0  486.4543103623226 168.8251325157939 0  484.1278102222298 162.3406109960628 0  481.6235167152198 155.9226567951971 0  478.9433315621651 149.5761436051346 0  476.0892900516498 143.3058908657982 0  473.063559513628 137.1166601437124 0  469.8684376406648 131.0131514433083 0  466.5063507675389 124.9999996907064 0  462.9798520124137 119.0817711822745 0  459.2916193464549 113.2629601339176 0  455.4444535642773 107.5479852733717 0  451.4412761528674 101.9411864767781 0  447.2851270583545 96.44682145403524 0  442.9791624165781 91.06906256805769 0  438.5266521117469 85.81199360630404 0  433.9309773156125 80.67960671046254 0  429.1956279150353 75.67579933888632 0  424.3241998888952 70.80437133373906 0  419.3203925223282 66.06902197812161 0  414.1880056411937 61.47334723289828 0  408.9309366751728 57.0208369601728 0  403.5531778009394 52.71487236176898 0  398.058812796452 48.55872331295853 0  392.4520140187753 44.55554594490843 0  386.7370391799677 40.70838020528396 0  380.9182281475119 37.02014757560744 0  374.9999996718656 33.49364886444181 0  368.9868479340393 30.13156202237255 0  362.8833392380029 26.93644017348339 0  356.6941085456942 23.91070967062674 0  350.4238558420009 21.0566681953261 0  344.0773426899492 18.37648307566465 0  337.6593885328982 15.87218960140942 0  331.1748670549786 13.54568949032341 0  324.6287025315056 11.39874946165088 0  318.0258660010876 9.432999863235466 0  311.3713716017894 7.649933468721599 0  304.6702726190621 6.050904302234756 0  297.9276578269805 4.637126656823085 0  291.148647441857 3.409674127905504 0  284.3383893425031 2.369478825079682 0  277.502055159398 1.517330660648639 0  270.6448362875833 0.853876741662134 0  263.7719400401456 0.3796208889774277 0  256.8885855592052 0.09492324285704967 0  243.1114143979462 0.09492324403817065 0  236.2280598850882 0.3796208931023841 0  229.3551635938215 0.8538767514891958 0  222.4979446968584 1.517330676558146 0  215.6616104703111 2.369478851036291 0  208.8513523382973 3.409674164591252 0  202.0723419066374 4.637126708856528 0  195.3297270659513 6.050904372824903 0  188.628628074828 7.649933550613184 0  181.9741336377093 9.432999965373938 0  175.3712970793675 11.39874958336037 0  168.8251325057572 13.54568964112298 0  162.340610986655 15.87218978129263 0  155.9226567874317 18.37648328793418 0  149.576143602509 21.05666843898663 0  143.3058908718157 23.91070994551046 0  137.1166601505524 26.93644048291054 0  131.0131514451933 30.13156235831508 0  124.9999996848412 33.49364923584736 0  119.0817711715717 37.0201479941652 0  113.2629601211624 40.70838066187849 0  107.5479852622251 44.55554644345162 0  101.9411864693332 48.55872385260452 0  96.44682143286516 52.71487295812284 0  91.06906254351222 57.02083760363669 0  85.81199358272519 61.4733479087879 0  80.67960667988106 66.06902271253972 0  75.67579930062769 70.80437212218331 0  70.80437129287643 75.67580015310926 0  66.06902193673014 80.67960752263491 0  61.47334718684866 85.81199441168215 0  57.02083692524275 91.0690633672404 0  52.71487232786438 96.44682224262129 0  48.55872328070024 101.941187247437 0  44.55554591578033 107.5479860232332 0  40.7083801742321 113.2629608675606 0  37.02014754791168 119.0817718975441 0  33.49364883372994 125.000000381329 0  30.13156199866361 131.0131521097709 0  26.9364401549829 137.1166607985551 0  23.91070965524918 143.3058914868915 0  21.05666818346614 149.576144185037 0  18.37648306853811 155.9226573275967 0  15.8721895918909 162.3406114925245 0  13.54568948170046 168.8251329701392 0  11.39874945301878 175.3712974960928 0  9.432999857087736 181.9741340206533 0  7.649933466342702 188.6286284076045 0  6.050904301250966 195.3297273853278 0  4.637126656808988 202.0723421730917 0  3.409674127767772 208.8513525589684 0  2.369478824521138 215.6616106615248 0  1.517330660909465 222.4979448382452 0  0.8538767414496533 229.355163714981 0  0.3796208887135322 236.2280599646376 0  0.09492324266324204 243.1114144478261 0  0.0949232442452228 256.8885856095658 0  0.3796208935834784 263.7719401236316 0  0.8538767530323526 270.6448364248016 0  1.517330679476544 277.5020553295092 0  2.369478854618649 284.3383895555228 0  3.409674170191892 291.1486476952655 0  4.6371267162381 297.9276581311522 0  6.050904381420935 304.6702729724059 0  7.649933562385399 311.3713719716595 0  9.43299997979841 318.0258664133013 0  11.3987495994252 324.6287029719946 0  13.54568965885832 331.174867545904 0  15.87218979367188 337.6593890464085 0  18.37648329843151 344.0773432384132 0  21.05666844777872 350.423856417535 0  23.91070995156048 356.6941091410045 0  26.93644048988043 362.8833398632205 0  30.13156235982007 368.9868485575877 0  33.49364924138357 375.0000003247478 0  37.0201480006036 380.9182288389023 0  40.70838066758398 386.7370398875706 0  44.55554644477201 392.4520147396792 0  48.55872386086904 398.0588135419111 0  52.71487295981296 403.5531785693063 0  57.02083760525949 408.9309374584583 0  61.47334790862246 414.1880064170849 0  66.06902271205095 419.320393319588 0  70.80437211216579 424.3242006890749 0  75.67580013809859 429.195628692521 0  80.6796075127923 433.930978054209 0  85.81199439754931 438.5266528008431 0  91.06906334717917 442.9791630582355 0  96.44682221438322 447.2851276501571 0  101.9411872243843 451.441276702356 0  107.5479859945825 455.4444540643537 0  113.2629608446994 459.2916198108319 0  119.0817718768376 462.9798524393601 0  125.0000003647644 466.5063511567065 0  131.0131521012763 469.8684379967393 0  137.1166607840049 473.0635598376539 0  143.3058914748804 476.0892903390826 0  149.5761441732679 478.9433318113714 0  155.9226573130112 481.6235169255377 0  162.3406114779862 484.1278104026658 0  168.8251329570439 486.4543105138039 0  175.3712974805475 488.601250542119 0  181.9741340135204 490.5670001408953 0  188.6286284005059 492.3500665318597 0  195.3297273788229 493.9490956972913 0  202.0723421640089 495.3628733414168 0  208.8513525529672 496.5903258712308 0  215.6616106544547 497.6305211744985 0  222.4979448327038 498.4826693384772 0  229.3551637102845 499.1461232581612 0  236.2280599621369 499.6203791111485 0  243.1114144470173 499.9050767573145 0  155.2373389820306 474.8197567317462 0  25.36256300907667 153.9152755065208 0  432.3709625126712 412.6214396304305 0  6.013151705810699 246.637913163471 0  246.6379131630491 493.986848294322 0  338.6995838441862 22.68244767887072 0  477.3175523131281 338.6995838660569 0  493.9868482700757 246.6379131399102 0  246.6201155078769 6.218451882810491 0  417.6179310263282 72.7156044707053 0  102.2232990934413 445.0100869616822 0  63.66330858966404 92.20354579482142 0  391.3105220491464 50.73522820883105 0  72.79295043967942 418.0702734974704 0  448.290574428537 108.25674339002 0  402.4604651193511 440.7462829841712 0  97.55317348421397 59.11376320116034 0  136.7376477664901 33.58246472647134 0  363.3288394375288 465.6947312928271 0  44.0678766556007 381.0860953771871 0  469.6905266180034 142.3890690100806 0  22.68244791668644 338.6995843487432 0  338.699584349159 477.317552078365 0  173.389488083762 18.6681884918202 0  483.4809734778481 179.7121987795732 0  13.50237455842738 306.4709525540879 0  305.9825168523021 487.24416992
[...]
<PointData  Vectors="f_12"> 
<DataArray  type="Float64"  Name="f_12"  NumberOfComponents="3" format="ascii">0.0000000000000000e+00 9.3594434617257238e-01 5.0798511680420828e-02  0.0000000000000000e+00 8.9104610865767431e-01 2.6789519709806229e-02  0.0000000000000000e+00 8.5242030354075726e-01 2.6993282207665736e-01  0.0000000000000000e+00 5.7150071507965372e-01 9.9611386356965193e-03  0.0000000000000000e+00 8.5154846425644370e-01 2.7146817987106764e-01  0.0000000000000000e+00 8.5112093604767147e-01 2.7218569904394035e-01  0.0000000000000000e+00 8.5079126077526701e-01 2.7272640622226502e-01  0.0000000000000000e+00 8.5083447903254228e-01 2.7258485650039355e-01  0.0000000000000000e+00 8.5112104121245746e-01 2.7199833785629635e-01  0.0000000000000000e+00 8.5167309336408470e-01 2.7092624420531791e-01  0.0000000000000000e+00 8.5246243698990021e-01 2.6941916562153212e-01  0.0000000000000000e+00 8.5343964951433082e-01 2.6756678680085361e-01  0.0000000000000000e+00 8.5462729317936104e-01 2.6532673117454453e-01  0.0000000000000000e+00 8.5602335598603363e-01 2.6269939000157250e-01  0.0000000000000000e+00 8.5781072159758387e-01 2.5934365521682706e-01  0.0000000000000000e+00 8.5934846607704729e-01 2.5644834260097560e-01  0.0000000000000000e+00 8.6157739408941125e-01 2.5225851029858848e-01  0.0000000000000000e+00 8.6359579520422158e-01 2.4845142465877323e-01  0.0000000000000000e+00 8.6581250586514535e-01 2.4426340439143471e-01  0.0000000000000000e+00 8.6813383133576039e-01 2.3986667812313348e-01  0.0000000000000000e+00 8.7050596381341094e-01 2.3535945966321323e-01  0.0000000000000000e+00 8.7308561817232411e-01 2.3044013265070529e-01  0.0000000000000000e+00 8.7574334725764957e-01 2.2535314645629481e-01  0.0000000000000000e+00 8.7830665930714247e-01 2.2042449816649273e-01  0.0000000000000000e+00 8.8095789280840997e-01 2.1530469084831422e-01  0.0000000000000000e+00 8.8372193333147009e-01 2.0993765691559046e-01  0.0000000000000000e+00 8.8661990924905343e-01 2.0427897172231768e-01  0.0000000000000000e+00 8.8936707846150775e-01 1.9888164570690595e-01  0.0000000000000000e+00 8.9211306111139943e-01 1.9345037236072041e-01  0.0000000000000000e+00 8.9500136057165036e-01 1.8769530315744878e-01  0.0000000000000000e+00 8.9776479086700101e-01 1.8214508963167564e-01  0.0000000000000000e+00 9.0054136635238036e-01 1.7651788077366412e-01  0.0000000000000000e+00 9.0330567376256121e-01 1.7086294771246285e-01  0.0000000000000000e+00 9.0597961864244503e-01 1.6533565011700699e-01  0.0000000000000000e+00 9.0869885106629367e-01 1.5964576475563774e-01  0.0000000000000000e+00 9.1133122062420180e-01 1.5406559161108635e-01  0.0000000000000000e+00 9.1383141416865843e-01 1.4869054597632814e-01  0.0000000000000000e+00 9.1631923251751424e-01 1.4325189194519616e-01  0.0000000000000000e+00 9.1877285459879843e-01 1.3778378751589912e-01  0.0000000000000000e+00 9.2108893142448334e-01 1.3251458959658313e-01  0.0000000000000000e+00 9.2326322346481360e-01 1.2745177353944573e-01  0.0000000000000000e+00 9.2537788340336358e-01 1.2239111035036307e-01  0.0000000000000000e+00 9.2742108091217090e-01 1.1734808968685799e-01  0.0000000000000000e+00 9.2931247697646080e-01 1.1250467704374986e-01  0.0000000000000000e+00 9.3108603605465001e-01 1.0776281831048050e-01  0.0000000000000000e+00 9.3273086964862584e-01 1.0314164167646148e-01  0.0000000000000000e+00 9.3422808391538281e-01 9.8674212181108015e-02  0.0000000000000000e+00 9.3556516652284516e-01 9.4383971669431285e-02  0.0000000000000000e+00 9.3676980610687011e-01 9.0144838083662443e-02  0.0000000000000000e+00 9.3780362875984646e-01 8.6084226660156860e-02  0.0000000000000000e+00 9.3865630530373889e-01 8.2192224110739356e-02  0.0000000000000000e+00 9.3934089705477886e-01 7.8422508432445887e-02  0.0000000000000000e+00 9.3983458551923882e-01 7.4815173202649840e-02  0.0000000000000000e+00 9.4013925374240803e-01 7.1308785576664702e-02  0.0000000000000000e+00 9.4023712401126758e-01 6.7959861655484788e-02  0.0000000000000000e+00 9.4011942518353009e-01 6.4778682254899703e-02  0.0000000000000000e+00 9.3977667776934670e-01 6.1719525163590166e-02  0.0000000000000000e+00 9.3920298646836875e-01 5.8800804212268985e-02  0.0000000000000000e+00 9.3839453877511569e-01 5.6000684479462097e-02  0.0000000000000000e+00 9.3737492560733637e-01 5.3387693519394756e-02  0.0000000000000000e+00 9.3436873247374030e-01 4.8362537904645404e-02  0.0000000000000000e+00 9.3247697760588222e-01 4.6068879896602979e-02  0.0000000000000000e+00 9.3030041593428170e-01 4.3919691589564457e-02  0.0000000000000000e+00 9.2778349385911962e-01 4.1833738740022761e-02  0.0000000000000000e+00 9.2495856823806022e-01 3.9872158222499857e-02  0.0000000000000000e+00 9.2179864560234781e-01 3.7997053041273786e-02  0.0000000000000000e+00 9.1829630355669367e-01 3.6228588947470358e-02  0.0000000000000000e+00 9.1443800563062405e-01 3.4553757005714919e-02  0.0000000000000000e+00 9.1022428855756832e-01 3.2973947098859605e-02  0.0000000000000000e+00 9.0565170588909027e-01 3.1487248863267002e-02  0.0000000000000000e+00 9.0068157718620478e-01 3.0073579892390082e-02  0.0000000000000000e+00 8.9535722572260279e-01 2.8742937922757950e-02  0.0000000000000000e+00 8.8963204732846823e-01 2.7478562651633429e-02  0.0000000000000000e+00 8.8352460815103351e-01 2.6287244144232065e-02  0.0000000000000000e+00 8.7704148161097617e-01 2.5166814475094196e-02  0.0000000000000000e+00 8.7019944552070350e-01 2.4117358725547048e-02  0.0000000000000000e+00 8.6299054349096793e-01 2.3128289103207425e-02  0.0000000000000000e+00 8.5542047057901827e-01 2.2195513797266555e-02  0.0000000000000000e+00 8.4750046236517651e-01 2.1314763509831122e-02  0.0000000000000000e+00 8.3925951715015867e-01 2.0485264277884045e-02  0.0000000000000000e+00 8.3068334834123325e-01 1.9703225066220131e-02  0.0000000000000000e+00 8.2188737821809099e-01 1.8979098656120286e-02  0.0000000000000000e+00 8.1280400272692099e-01 1.8297103699022710e-02  0.0000000000000000e+00 8.0352906870392260e-01 1.7659602813126684e-02  0.0000000000000000e+00 7.9403778010708814e-01 1.7059096891204929e-02  0.0000000000000000e+00 7.8436836533254584e-01 1.6493894900315841e-02  0.0000000000000000e+00 7.7455830457098962e-01 1.5963603793040536e-02  0.0000000000000000e+00 7.6465619641903426e-01 1.5468362367725124e-02  0.0000000000000000e+00 7.5472364968197203e-01 1.5006994179568460e-02  0.0000000000000000e+00 7.4477262726288862e-01 1.4577771490978159e-02  0.0000000000000000e+00 7.3484618697219295e-01 1.4177798582179693e-02  0.0000000000000000e+00 7.2496717183885617e-01 1.3803956163251889e-02  0.0000000000000000e+00 7.1510491444564550e-01 1.3452162054107734e-02  0.0000000000000000e+00 7.0541782791675933e-01 1.3125359567998526e-02  0.0000000000000000e+00 6.9599177647376476e-01 1.2824568280071124e-02  0.0000000000000000e+00 6.8659529501312411e-01 1.2539108697547995e-02  0.0000000000000000e+00 6.7741064562083997e-01 1.2274353032653165e-02  0.0000000000000000e+00 6.6866399351255601e-01 1.2035941312876147e-02  0.0000000000000000e+00 6.6003385175368090e-01 1.1810469733231967e-02  0.0000000000000000e+00 6.5161412646224393e-01 1.1599617839996336e-02  0.0000000000000000e+00 6.4379093571243606e-01 1.1412822126718064e-02  0.0000000000000000e+00 6.3620045581465612e-01 1.1238586960900047e-02  0.0000000000000000e+00 6.2898612446748436e-01 1.1077809142409398e-02  0.0000000000000000e+00 6.2210636161818866e-01 1.0929165225440575e-02  0.0000000000000000e+00 6.1562727873803547e-01 1.0793109598538173e-02  0.0000000000000000e+00 6.0952235547647571e-01 1.0668284203464476e-02  0.0000000000000000e+00 6.0385245973653068e-01 1.0555313218346395e-02  0.0000000000000000e+00 5.9864672559432064e-01 1.0454154986015990e-02  0.0000000000000000e+00 5.9380387170668958e-01 1.0361868769996627e-02  0.0000000000000000e+00 5.8934343633206532e-01 1.0278080303537539e-02  0.0000000000000000e+00 5.8539063057890195e-01 1.0205372753632225e-02  0.0000000000000000e+00 5.8195941345323765e-01 1.0143808832695356e-02  0.0000000000000000e+00 5.7903829419303288e-01 1.0092752667903908e-02  0.0000000000000000e+00 5.7644491296018452e-01 1.0047515950365340e-02  0.0000000000000000e+00 5.7436462437655522e-01 1.0011356766603132e-02  0.0000000000000000e+00 5.7268475133395746e-01 9.9818385320794289e-03  0.0000000000000000e+00 5.7099084346275308e-01 9.9525968694412319e-03  0.0000000000000000e+00 5.6985347877578385e-01 9.9297475727112040e-03  0.0000000000000000e+00 5.7045558552706255e-01 9.9406976257009113e-03  0.0000000000000000e+00 5.7098439968594261e-01 9.9483378407255411e-03  0.0000000000000000e+00 5.7186896444040691e-01 9.9616858389145087e-03  0.0000000000000000e+00 5.7324434226164844e-01 9.9837025073773299e-03  0.0000000000000000e+00 5.7510460389258700e-01 1.0014167030583606e-02  0.0000000000000000e+00 5.7726782544388477e-01 1.0049617398693804e-02  0.0000000000000000e+00 5.7987370657714465e-01 1.0093246129426857e-02  0.0000000000000000e+00 5.8234845657436252e-01 1.0133125870533957e-02  0.0000000000000000e+00 5.8596968396625471e-01 1.0196758202357416e-02  0.0000000000000000e+00 5.8972011132778934e-01 1.0263215072729358e-02  0.0000000000000000e+00 5.9379317081778815e-01 1.0336710109521315e-02  0.0000000000000000e+00 5.9801448066333751e-01 1.0413047893191521e-02  0.0000000000000000e+00 6.0264688849055326e-01 1.0499178115002790e-02  0.0000000000000000e+00 6.0777327506050582e-01 1.0597794287505477e-02  0.0000000000000000e+00 6.1306037469367469e-01 1.0701250746304559e-02  0.0000000000000000e+00 6.1861375846640754e-01 1.0812136920444899e-02  0.0000000000000000e+00 6.2440771267750317e-01 1.0930654113177916e-02  0.0000000000000000e+00 6.3044918735991218e-01 1.1057709726213193e-02  0.0000000000000000e+00 6.3678998279545329e-01 1.1195361415181579e-02  0.0000000000000000e+00 6.4338706445699256e-01 1.1342886225559885e-02  0.0000000000000000e+00 6.5010780921446731e-01 1.1497391837162467e-02  0.0000000000000000e+00 6.5698179808706469e-01 1.1660775604209299e-02  0.0000000000000000e+00 6.6403862788224066e-01 1.1834693341830793e-02  0.0000000000000000e+00 6.7125098116783488e-01 1.2019421720460841e-02  0.0000000000000000e+00 6.7861793215672650e-01 1.2215913245074355e-02  0.0000000000000000e+00 6.8610345423121000e-01 1.2424092141283167e-02  0.0000000000000000e+00 6.9370605768944316e-01 1.2644645386145148e-02  0.0000000000000000e+00 7.0139576722345376e-01 1.2877416206548876e-02  0.0000000000000000e+00 7.0915401663984845e-01 1.3122421254092876e-02  0.0000000000000000e+00 7.1692106143569334e-01 1.3377899484021669e-02  0.0000000000000000e+00 7.2470240643018191e-01 1.3645049246343332e-02  0.0000000000000000e+00 7.3248320532523670e-01 1.3925074194017216e-02  0.0000000000000000e+00 7.4034626848855289e-01 1.4222316026930507e-02  0.0000000000000000e+00 7.4819642798016439e-01 1.4534786956334126e-02  0.0000000000000000e+00 7.5602800090760114e-01 1.4863980738326137e-02  0.0000000000000000e+00 7.6381262277099260e-01 1.5209698123157851e-02  0.0000000000000000e+00 7.7153812346492912e-01 1.5573247573005093e-02  0.0000000000000000e+00 7.7917270321998944e-01 1.5954281074088819e-02  0.0000000000000000e+00 7.8686578570266996e-01 1.6362705579481815e-02  0.0000000000000000e+00 7.9444118521211737e-01 1.6788996448887473e-02  0.0000000000000000e+00 8.0178950911738278e-01 1.7227392816789557e-02  0.0000000000000000e+00 8.0911048808006858e-01 1.7692056841717339e-02  0.0000000000000000e+00 8.1636779110938562e-01 1.8185702185869172e-02  0.0000000000000000e+00 8.2350692074974330e-01 1.8707298858404307e-02  0.0000000000000000e+00 8.3036192876745163e-01 1.9243194140794440e-02  0.0000000000000000e+00 8.3730442479175737e-01 1.9833718434883501e-02  0.0000000000000000e+00 8.4398676609882839e-01 2.0446208844780229e-02  0.0000000000000000e+00 8.5053205029747347e-01 2.1093103191486787e-02  0.0000000000000000e+00 8.5682610916895907e-01 2.1768242170460011e-02  0.0000000000000000e+00 8.6301816973521905e-01 2.2487463748438057e-02  0.0000000000000000e+00 8.6904915834572671e-01 2.3251856359086859e-02  0.0000000000000000e+00 8.7485820065365694e-01 2.4058130551163948e-02  0.0000000000000000e+00 8.8045073704278187e-01 2.4910874302967907e-02  0.0000000000000000e+00 8.8584659982878466e-01 2.5819066436164325e-02  0.0000000000000000e+00 8.9602785322043565e-01 2.7819014097360848e-02  0.0000000000000000e+00 9.0076336154967718e-01 2.8905121694665813e-02  0.0000000000000000e+00 9.0525108217784933e-01 3.0054304380704600e-02  0.0000000000000000e+00 9.0950513411604761e-01 3.1275226016644328e-02  0.0000000000000000e+00 9.1351870088141973e-01 3.2577665227988266e-02  0.0000000000000000e+00 9.1728764424925191e-01 3.3969418383242349e-02  0.0000000000000000e+00 9.2080359489021557e-01 3.5453516421881451e-02  0.0000000000000000e+00 9.2406441163175390e-01 3.7032255346064614e-02  0.0000000000000000e+00 9.2706524495367848e-01 3.8706924572078007e-02  0.0000000000000000e+00 9.2980529241422505e-01 4.0486043045275102e-02  0.0000000000000000e+00 9.3228435862570680e-01 4.2383257843706695e-02  0.0000000000000000e+00 9.3450409360778242e-01 4.4406902514266614e-02  0.0000000000000000e+00 9.3645816985280905e-01 4.6563130004094469e-02  0.0000000000000000e+00 9.3815453222772460e-01 4.8865442013261484e-02  0.0000000000000000e+00 9.3958987485254619e-01 5.1301140012767803e-02  0.0000000000000000e+00 9.4077082820048996e-01 5.3894479546413895e-02  0.0000000000000000e+00 9.4169892897020746e-01 5.6653581026755537e-02  0.0000000000000000e+00 9.4236957691691059e-01 5.9572153610229092e-02  0.0000000000000000e+00 9.4278486189790711e-01 6.2694230421314279e-02  0.0000000000000000e+00 9.4295458799706866e-01 6.5999917114832468e-02  0.0000000000000000e+00 9.4287643329896109e-01 6.9511549276903367e-02  0.0000000000000000e+00 9.4255858117138824e-01 7.3222155920323370e-02  0.0000000000000000e+00 9.4200594024176876e-01 7.7139396189395776e-02  0.0000000000000000e+00 9.4121410424699248e-01 8.1289034853609013e-02  0.0000000000000000e+00 9.4018989780651130e-01 8.5658957363099253e-02  0.0000000000000000e+00 9.3893111276848773e-01 9.0278763826308395e-02  0.0000000000000000e+00 9.3744444271763439e-01 9.5154641817866661e-02  0.0000000000000000e+00 9.3574919325095718e-01 1.0023215626181352e-01  0.0000000000000000e+00 9.3383117818839545e-01 1.0557920227304275e-01  0.0000000000000000e+00 9.3171440181611220e-01 1.1114533101778797e-01  0.0000000000000000e+00 9.2939699588636759e-01 1.1694495950024020e-01  0.0000000000000000e+00 9.2687974311420007e-01 1.2298867279877239e-01  0.0000000000000000e+00 9.2417696517424408e-01 1.2925532791792971e-01  0.0000000000000000e+00 9.2128937448113224e-01 1.3575463155309331e-01  0.0000000000000000e+00 9.1821854194361763e-01 1.4249400720153052e-01  0.0000000000000000e+00 9.1504649994545995e-01 1.4930250332641601e-01  0.0000000000000000e+00 9.1174846724875414e-01 1.5624624276819765e-01  0.0000000000000000e+00 9.0826152155635376e-01 1.6346954315074055e-01  0.0000000000000000e+00 9.0471857685853674e-01 1.7069737305931773e-01  0.0000000000000000e+00 9.0112184825281383e-01 1.7793537788254946e-01  0.0000000000000000e+00 8.9744243860076478e-01 1.8525449865563948e-01  0.0000000000000000e+00 8.9375114958533142e-01 1.9251875182398132e-01  0.0000000000000000e+00 8.8999909836739677e-01 1.9983149146963716e-01  0.0000000000000000e+00 8.8637322400530671e-01 2.0683369721084402e-01  0.0000000000000000e+00 8.8271135817044033e-01 2.1384981989389501e-01  0.0000000000000000e+00 8.7916741108719432e-01 2.2058828638967623e-01  0.0000000000000000e+00 8.7571804693336008e-01 2.2710157624719920e-01  0.0000000000000000e+00 8.7236451614707644e-01 2.3339511092621590e-01  0.0000000000000000e+00 8.6925469220932761e-01 2.3919308773063352e-01  0.0000000000000000e+00 8.6634995099746037e-01 2.4457645111416865e-01  0.0000000000000000e+00 8.6354171962682535e-01 2.4975785480296858e-01  0.0000000000000000e+00 8.6103226931322407e-01 2.5436123854891718e-01  0.0000000000000000e+00 8.5881667615842605e-01 2.5840354295365425e-01  0.0000000000000000e+00 8.5682137263821589e-01 2.6202604613672975e-01  0.0000000000000000e+00 8.5507933547379078e-01 2.6517342499182861e-01  0.0000000000000000e+00 8.5367968730887001e-01 2.6768275891414661e-01  0.0000000000000000e+00 8.9291760904516493e-01 1.9411847884486058e-01  0.0000000000000000e+00 7.9787156929397307e-01 1.7000772841658164e-02  0.0000000000000000e+00 9.0832923434827173e-01 1.6042329010613487e-01  0.0000000000000000e+00 8.8887967606878437e-01 2.6388092910962904e-02  0.0000000000000000e+00 8.5513933721084578e-01 2.6495607790275533e-01  0.0000000000000000e+00 6.2768715107303930e-01 1.1058505061695643e-02  0.0000000000000000e+00 9.3517647597835274e-01 9.5654401272950620e-02  0.0000000000000000e+00 9.3509329550681519e-01 4.9355248882570535e-02  0.0000000000000000e+00 5.7378827382584419e-01 1.0010068526101243e-02  0.0000000000000000e+00 7.5063791185826201e-01 1.4833899398500919e-02  0.0000000000000000e+00 9.2319405732561577e-01 1.3146683803163661e-01  0.0000000000000000e+00 7.1463234315969026e-01 1.3311623035488716e-02  0.0000000000000000e+00 7.0098567699588832e-01 1.2989265181606006e-02  0.0000000000000000e+00 9.3670226342861962e-01 9.7401118780498841e-02  0.0000000000000000e+00 8.1764485818871868e-01 1.8657539432025815e-02  0.0000000000000000e+00 8.9180564796682216e-01 1.9406308943466863e-01  0.0000000000000000e+00 6.6199949880780895e-01 1.1793387310265762e-02  0.0000000000000000e+00 6.1795241927701106e-01 1.0808933633681763e-02  0.0000000000000000e+00 8.7367400646143556e-01 2.2933877933611191e-01  0.0000000000000000e+00 9.4293026062329099e-01 6.7844868907027400e-02  0.0000000000000000e+00 8.6648582151230735e-01 2.3596966443537440e-02  0.0000000000000000e+00 9.3733845581698161e-01 4.7711123976541585e-02  0.0000000000000000e+00 8.6433490024508308e-01 2.4708934974411428e-01  0.0000000000000000e+00 5.9084055310633987e-01 1.0294911947039498e-02  0.0000000000000000e+00 9.0252778289693147e-01 3.0576968207780528e-02  0.0000000000000000e+00 9.2572142830162063e-01 3.7952317249358970e-02  0.0000000000000000e+00 8.5613034990895787e-01 2.6258039735845878e-01  0.0000000000000000e+00 8.7247917265657959e-01 2.3313427888043528e-01  0.0000000000000000e+00 8.4139058235448938e-01 2.0215347204993000e-02  0.0000000000000000e+00 5.9404791931854395e-01 1.0376150077382245e-02  0.0000000000000000e+00 9.4005646529566600e-01 7.2531140548995301e-02  0.0000000000000000e+00 9.2230960819944707e-01 1.2967951532776900e-01  0.0000000000000000e+00 5.7657062033845552e-01 1.0048404626937072e-02  0.0000000000000000e+00 9.1966722388212174e-01 3.6888129339115623e-02  0.0000000000000000e+00 9.1174630100730703e-01 3.1999206050178516e-02  0.0000000000000000e+00 8.5306512098983078e-01 2.6845393473967299e-01  0.0000000000000000e+00 6.6614060266613984e-01 1.1976539982390422e-02  0.0000000000000000e+00 7.6112127642798300e-01 1.5097696203845247e-02  0.0000000000000000e+00 8.6175199524403978e-01 2.5297964251159072e-01  0.0000000000000000e+00 9.0738757056400410e-01 1.6523869937934002e-01  0.0000000000000000e+00 8.6734714185798845e-01 2.3044275232075622e-02  0.0000000000000000e+00 5.8049448728967701e-01 1.0128454825492041e-02  0.0000000000000000e+00 9.3951306964704306e-01 6.0222820887331149e-02  0.0000000000000000e+00 8.8430550201266844e-01 2.0881181982191377e-01  0.0000000000000000e+00 9.3841300530054272e-01 8.3371395224940095e-02  0.0000000000000000e+00 5.7291749970619343e-01 9.9899011839720935e-03  0.0000000000000000e+00 6.0896265014470441e-01 1.0665992604522263e-02  0.0000000000000000e+00 9.2884530676954513e-01 4.2655318850808081e-02  0.0000000000000000e+00 7.7981107540538108e-01 1.6248991436896502e-02  0.0000000000000000e+00 8.8230008393995119e-01 2.1459349923934734e-01  0.0000000000000000e+00 9.1600446165971683e-01 1.4394332209571667e-01  0.0000000000000000e+00 9.4074000732444318e-01 8.3366852610895215e-02  0.0000000000000000e+00 6.4220290574216687e-01 1.1326440357593569e-02  0.0000000000000000e+00 9.4209080132950551e-01 5.8239184512756371e-02  0.0000000000000000e+00 8.2083365190826629e-01 1.8519652892795224e-02  0.0000000000000000e+00 9.2881217427583884e-01 1.1379907077271390e-01  0.0000000000