<?xml version="1.0"?>
<VTKFile type="UnstructuredGrid"  version="0.1"  >
<UnstructuredGrid>
<Piece  NumberOfPoints="4940" NumberOfCells="9650">
<Points>
<DataArray  type="Float64"  NumberOfComponents="3"  format="ascii">500 250 0  0 250 0  250 500 0  250 0 0  256.8885856082646 499.9050767557906 0  263.7719401218049 499.6203791065173 0  270.6448364229772 499.1461232471188 0  277.5020553257866 498.4826693209355 0  284.3383895508592 497.6305211460281 0  291.1486476865662 496.5903258312597 0  297.9276581259182 495.3628732847843 0  304.6702729675493 493.9490956196674 0  311.3713719748657 492.3500664368026 0  318.0258664141369 490.5670000199653 0  324.6287029687753 488.6012504015818 0  331.1748675330201 486.4543103455647 0  337.6593890460416 484.1278102064655 0  344.0773432429536 481.6235166997244 0  350.4238564271474 478.9433315480048 0  356.694109139292 476.0892900492477 0  362.88333985546 473.0635595140469 0  368.9868485575419 469.8684376402048 0  375.0000003153078 466.5063507640667 0  380.9182288257928 462.9798520074548 0  386.7370398729688 459.2916193419558 0  392.4520147244077 455.444453565817 0  398.0588135356345 451.4412761437442 0  403.5531785622926 447.285127045646 0  408.9309374414144 442.9791624087773 0  414.1880064015299 438.5266521049243 0  419.3203932989752 433.9309773069245 0  424.324200661095 429.1956279150535 0  429.1956286596235 424.3241998957182 0  433.9309780058756 419.3203925397119 0  438.5266527445345 414.1880056671062 0  442.9791630130591 408.9309367076756 0  447.2851276060475 403.5531778422888 0  451.4412766621026 398.0588128303826 0  455.4444540361634 392.4520140460735 0  459.2916197786263 386.7370392045948 0  462.9798524073514 380.9182281752347 0  466.5063511234856 374.9999996927758 0  469.8684379657123 368.9868479560565 0  473.0635598144817 362.8833392617846 0  476.0892903190255 356.6941085676214 0  478.9433317963513 350.4238558609745 0  481.6235169154735 344.0773427117675 0  484.12781039012 337.6593885555221 0  486.4543105028062 331.1748670749914 0  488.601250531677 324.6287025528375 0  490.5670001317469 318.0258660188321 0  492.3500665291326 311.3713716102628 0  493.949095695951 304.6702726271575 0  495.3628733416623 297.9276578347343 0  496.5903258712341 291.1486474470129 0  497.6305211749058 284.3383893426084 0  498.4826693388848 277.502055163614 0  499.1461232580606 270.6448362909296 0  499.6203791109319 263.7719400417897 0  499.9050767571306 256.8885855596534 0  499.9050767559877 243.1114143988867 0  499.6203791069493 236.2280598860241 0  499.1461232485393 229.3551635941651 0  498.4826693235677 222.4979446979962 0  497.6305211491849 215.6616104719064 0  496.5903258357701 208.8513523404629 0  495.3628732906988 202.0723419043604 0  493.9490956264813 195.3297270628552 0  492.3500664487791 188.6286280724281 0  490.5670000344809 181.9741336371959 0  488.6012504175981 175.3712970824318 0  486.4543103623226 168.8251325157939 0  484.1278102222298 162.3406109960628 0  481.6235167152198 155.9226567951971 0  478.9433315621651 149.5761436051346 0  476.0892900516498 143.3058908657982 0  473.063559513628 137.1166601437124 0  469.8684376406648 131.0131514433083 0  466.5063507675389 124.9999996907064 0  462.9798520124137 119.0817711822745 0  459.2916193464549 113.2629601339176 0  455.4444535642773 107.5479852733717 0  451.4412761528674 101.9411864767781 0  447.2851270583545 96.44682145403524 0  442.9791624165781 91.06906256805769 0  438.5266521117469 85.81199360630404 0  433.9309773156125 80.67960671046254 0  429.1956279150353 75.67579933888632 0  424.3241998888952 70.80437133373906 0  419.3203925223282 66.06902197812161 0  414.1880056411937 61.47334723289828 0  408.9309366751728 57.0208369601728 0  403.5531778009394 52.71487236176898 0  398.058812796452 48.55872331295853 0  392.4520140187753 44.55554594490843 0  386.7370391799677 40.70838020528396 0  380.9182281475119 37.02014757560744 0  374.9999996718656 33.49364886444181 0  368.9868479340393 30.13156202237255 0  362.8833392380029 26.93644017348339 0  356.6941085456942 23.91070967062674 0  350.4238558420009 21.0566681953261 0  344.0773426899492 18.37648307566465 0  337.6593885328982 15.87218960140942 0  331.1748670549786 13.54568949032341 0  324.6287025315056 11.39874946165088 0  318.0258660010876 9.432999863235466 0  311.3713716017894 7.649933468721599 0  304.6702726190621 6.050904302234756 0  297.9276578269805 4.637126656823085 0  291.148647441857 3.409674127905504 0  284.3383893425031 2.369478825079682 0  277.502055159398 1.517330660648639 0  270.6448362875833 0.853876741662134 0  263.7719400401456 0.3796208889774277 0  256.8885855592052 0.09492324285704967 0  243.1114143979462 0.09492324403817065 0  236.2280598850882 0.3796208931023841 0  229.3551635938215 0.8538767514891958 0  222.4979446968584 1.517330676558146 0  215.6616104703111 2.369478851036291 0  208.8513523382973 3.409674164591252 0  202.0723419066374 4.637126708856528 0  195.3297270659513 6.050904372824903 0  188.628628074828 7.649933550613184 0  181.9741336377093 9.432999965373938 0  175.3712970793675 11.39874958336037 0  168.8251325057572 13.54568964112298 0  162.340610986655 15.87218978129263 0  155.9226567874317 18.37648328793418 0  149.576143602509 21.05666843898663 0  143.3058908718157 23.91070994551046 0  137.1166601505524 26.93644048291054 0  131.0131514451933 30.13156235831508 0  124.9999996848412 33.49364923584736 0  119.0817711715717 37.0201479941652 0  113.2629601211624 40.70838066187849 0  107.5479852622251 44.55554644345162 0  101.9411864693332 48.55872385260452 0  96.44682143286516 52.71487295812284 0  91.06906254351222 57.02083760363669 0  85.81199358272519 61.4733479087879 0  80.67960667988106 66.06902271253972 0  75.67579930062769 70.80437212218331 0  70.80437129287643 75.67580015310926 0  66.06902193673014 80.67960752263491 0  61.47334718684866 85.81199441168215 0  57.02083692524275 91.0690633672404 0  52.71487232786438 96.44682224262129 0  48.55872328070024 101.941187247437 0  44.55554591578033 107.5479860232332 0  40.7083801742321 113.2629608675606 0  37.02014754791168 119.0817718975441 0  33.49364883372994 125.000000381329 0  30.13156199866361 131.0131521097709 0  26.9364401549829 137.1166607985551 0  23.91070965524918 143.3058914868915 0  21.05666818346614 149.576144185037 0  18.37648306853811 155.9226573275967 0  15.8721895918909 162.3406114925245 0  13.54568948170046 168.8251329701392 0  11.39874945301878 175.3712974960928 0  9.432999857087736 181.9741340206533 0  7.649933466342702 188.6286284076045 0  6.050904301250966 195.3297273853278 0  4.637126656808988 202.0723421730917 0  3.409674127767772 208.8513525589684 0  2.369478824521138 215.6616106615248 0  1.517330660909465 222.4979448382452 0  0.8538767414496533 229.355163714981 0  0.3796208887135322 236.2280599646376 0  0.09492324266324204 243.1114144478261 0  0.0949232442452228 256.8885856095658 0  0.3796208935834784 263.7719401236316 0  0.8538767530323526 270.6448364248016 0  1.517330679476544 277.5020553295092 0  2.369478854618649 284.3383895555228 0  3.409674170191892 291.1486476952655 0  4.6371267162381 297.9276581311522 0  6.050904381420935 304.6702729724059 0  7.649933562385399 311.3713719716595 0  9.43299997979841 318.0258664133013 0  11.3987495994252 324.6287029719946 0  13.54568965885832 331.174867545904 0  15.87218979367188 337.6593890464085 0  18.37648329843151 344.0773432384132 0  21.05666844777872 350.423856417535 0  23.91070995156048 356.6941091410045 0  26.93644048988043 362.8833398632205 0  30.13156235982007 368.9868485575877 0  33.49364924138357 375.0000003247478 0  37.0201480006036 380.9182288389023 0  40.70838066758398 386.7370398875706 0  44.55554644477201 392.4520147396792 0  48.55872386086904 398.0588135419111 0  52.71487295981296 403.5531785693063 0  57.02083760525949 408.9309374584583 0  61.47334790862246 414.1880064170849 0  66.06902271205095 419.320393319588 0  70.80437211216579 424.3242006890749 0  75.67580013809859 429.195628692521 0  80.6796075127923 433.930978054209 0  85.81199439754931 438.5266528008431 0  91.06906334717917 442.9791630582355 0  96.44682221438322 447.2851276501571 0  101.9411872243843 451.441276702356 0  107.5479859945825 455.4444540643537 0  113.2629608446994 459.2916198108319 0  119.0817718768376 462.9798524393601 0  125.0000003647644 466.5063511567065 0  131.0131521012763 469.8684379967393 0  137.1166607840049 473.0635598376539 0  143.3058914748804 476.0892903390826 0  149.5761441732679 478.9433318113714 0  155.9226573130112 481.6235169255377 0  162.3406114779862 484.1278104026658 0  168.8251329570439 486.4543105138039 0  175.3712974805475 488.601250542119 0  181.9741340135204 490.5670001408953 0  188.6286284005059 492.3500665318597 0  195.3297273788229 493.9490956972913 0  202.0723421640089 495.3628733414168 0  208.8513525529672 496.5903258712308 0  215.6616106544547 497.6305211744985 0  222.4979448327038 498.4826693384772 0  229.3551637102845 499.1461232581612 0  236.2280599621369 499.6203791111485 0  243.1114144470173 499.9050767573145 0  155.2373389820306 474.8197567317462 0  25.36256300907667 153.9152755065208 0  432.3709625126712 412.6214396304305 0  6.013151705810699 246.637913163471 0  246.6379131630491 493.986848294322 0  338.6995838441862 22.68244767887072 0  477.3175523131281 338.6995838660569 0  493.9868482700757 246.6379131399102 0  246.6201155078769 6.218451882810491 0  417.6179310263282 72.7156044707053 0  102.2232990934413 445.0100869616822 0  63.66330858966404 92.20354579482142 0  391.3105220491464 50.73522820883105 0  72.79295043967942 418.0702734974704 0  448.290574428537 108.25674339002 0  402.4604651193511 440.7462829841712 0  97.55317348421397 59.11376320116034 0  136.7376477664901 33.58246472647134 0  363.3288394375288 465.6947312928271 0  44.0678766556007 381.0860953771871 0  469.6905266180034 142.3890690100806 0  22.68244791668644 338.6995843487432 0  338.699584349159 477.317552078365 0  173.389488083762 18.6681884918202 0  483.4809734778481 179.7121987795732 0  13.50237455842738 306.4709525540879 0  305.9825168523021 487.24416992
[...]
<PointData  Vectors="f_12"> 
<DataArray  type="Float64"  Name="f_12"  NumberOfComponents="3" format="ascii">0.0000000000000000e+00 1.7495060567872353e-02 4.3020849475407652e-01  0.0000000000000000e+00 9.7928520265700036e-02 9.5432576312587791e-01  0.0000000000000000e+00 4.5419788255350244e-02 2.9087275243639878e-02  0.0000000000000000e+00 6.3612250223633660e-01 6.2762000526165884e-01  0.0000000000000000e+00 4.5715463217444290e-02 2.8849203323519184e-02  0.0000000000000000e+00 4.5887125933556427e-02 2.8713640521988427e-02  0.0000000000000000e+00 4.5989582682904789e-02 2.8632095221346188e-02  0.0000000000000000e+00 4.5983842273207239e-02 2.8638222261876532e-02  0.0000000000000000e+00 4.5887980474065219e-02 2.8714009228972558e-02  0.0000000000000000e+00 4.5699614339022157e-02 2.8862785802196863e-02  0.0000000000000000e+00 4.5422778054729829e-02 2.9084119448064067e-02  0.0000000000000000e+00 4.5067674878550061e-02 2.9373799848021232e-02  0.0000000000000000e+00 4.4633708475739164e-02 2.9735511227088968e-02  0.0000000000000000e+00 4.4119277217925502e-02 3.0176093200107428e-02  0.0000000000000000e+00 4.3501283363164778e-02 3.0724242197011170e-02  0.0000000000000000e+00 4.2881616038673076e-02 3.1291529935541698e-02  0.0000000000000000e+00 4.2124480317392493e-02 3.2017449977954818e-02  0.0000000000000000e+00 4.1374542048486618e-02 3.2773304507481615e-02  0.0000000000000000e+00 4.0575724166565096e-02 3.3620614488024080e-02  0.0000000000000000e+00 3.9748628263732516e-02 3.4543488719397220e-02  0.0000000000000000e+00 3.8912380795391346e-02 3.5532731904225297e-02  0.0000000000000000e+00 3.8047217562047549e-02 3.6631654477298527e-02  0.0000000000000000e+00 3.7169123561493336e-02 3.7821613212001115e-02  0.0000000000000000e+00 3.6296078480721083e-02 3.9084395046652808e-02  0.0000000000000000e+00 3.5397014876679837e-02 4.0477526083061946e-02  0.0000000000000000e+00 3.4457461297554171e-02 4.2047787176768131e-02  0.0000000000000000e+00 3.3472970528757445e-02 4.3817286809198615e-02  0.0000000000000000e+00 3.2495756530749279e-02 4.5721593224923744e-02  0.0000000000000000e+00 3.1514653900693967e-02 4.7806038496681885e-02  0.0000000000000000e+00 3.0520673647408153e-02 5.0114229793515007e-02  0.0000000000000000e+00 2.9572898906186650e-02 5.2547008541770725e-02  0.0000000000000000e+00 2.8650074365045807e-02 5.5164421653829870e-02  0.0000000000000000e+00 2.7753103879581902e-02 5.7986270118754714e-02  0.0000000000000000e+00 2.6873640218023263e-02 6.1039713810141102e-02  0.0000000000000000e+00 2.5979344005507408e-02 6.4482695162282694e-02  0.0000000000000000e+00 2.5092565472708189e-02 6.8292587500735663e-02  0.0000000000000000e+00 2.4224616130866881e-02 7.2442934013067881e-02  0.0000000000000000e+00 2.3377594384064369e-02 7.7009287753500438e-02  0.0000000000000000e+00 2.2572242549954751e-02 8.1967880380558730e-02  0.0000000000000000e+00 2.1822224076574585e-02 8.7232481676305373e-02  0.0000000000000000e+00 2.1114127188982309e-02 9.2902990959749479e-02  0.0000000000000000e+00 2.0419575758300969e-02 9.9254958542875832e-02  0.0000000000000000e+00 1.9734786170749627e-02 1.0638137927094982e-01  0.0000000000000000e+00 1.9090612935542223e-02 1.1417854043174963e-01  0.0000000000000000e+00 1.8490411376333043e-02 1.2267367305868250e-01  0.0000000000000000e+00 1.7943812046407420e-02 1.3183618326159852e-01  0.0000000000000000e+00 1.7447554660719060e-02 1.4172998920063859e-01  0.0000000000000000e+00 1.6999836156064117e-02 1.5255135697526059e-01  0.0000000000000000e+00 1.6579397156760142e-02 1.6477214063062490e-01  0.0000000000000000e+00 1.6204956615423122e-02 1.7818806741586760e-01  0.0000000000000000e+00 1.5893684218743476e-02 1.9276511405556268e-01  0.0000000000000000e+00 1.5644435050934959e-02 2.0842143122720977e-01  0.0000000000000000e+00 1.5467472596511518e-02 2.2537015809685143e-01  0.0000000000000000e+00 1.5352623853223295e-02 2.4410842794941123e-01  0.0000000000000000e+00 1.5308550564121380e-02 2.6479751118632172e-01  0.0000000000000000e+00 1.5354004175533837e-02 2.8735056680558457e-01  0.0000000000000000e+00 1.5496030143964213e-02 3.1180442268171116e-01  0.0000000000000000e+00 1.5759917811999157e-02 3.3805286851493721e-01  0.0000000000000000e+00 1.6142256673719130e-02 3.6626993363067406e-01  0.0000000000000000e+00 1.6652326888961816e-02 3.9593272970645899e-01  0.0000000000000000e+00 1.8422813899105009e-02 4.6597095431966001e-01  0.0000000000000000e+00 1.9708200903083228e-02 5.0376655388362435e-01  0.0000000000000000e+00 2.1324531729572351e-02 5.4277185881647538e-01  0.0000000000000000e+00 2.3418790901376975e-02 5.8431659649309198e-01  0.0000000000000000e+00 2.6131387121341613e-02 6.2778783946836292e-01  0.0000000000000000e+00 2.9622374138211314e-02 6.7276084293093952e-01  0.0000000000000000e+00 3.4037011381774437e-02 7.1741698688187694e-01  0.0000000000000000e+00 3.9511343172608619e-02 7.6075984414773856e-01  0.0000000000000000e+00 4.6284031069854445e-02 8.0248179071675463e-01  0.0000000000000000e+00 5.4616754962203057e-02 8.4228195524372773e-01  0.0000000000000000e+00 6.4756759465068536e-02 8.7934842247876210e-01  0.0000000000000000e+00 7.6510391352516943e-02 9.1223056169723249e-01  0.0000000000000000e+00 8.9767212978084807e-02 9.4044402591866605e-01  0.0000000000000000e+00 1.0438369268848792e-01 9.6382051087937126e-01  0.0000000000000000e+00 1.2045866217060895e-01 9.8280534165489375e-01  0.0000000000000000e+00 1.3802682699926366e-01 9.9755073991967758e-01  0.0000000000000000e+00 1.5686810886789201e-01 1.0079666994488765e+00  0.0000000000000000e+00 1.7643248708991360e-01 1.0141399115043515e+00  0.0000000000000000e+00 1.9628326602784998e-01 1.0164935473632619e+00  0.0000000000000000e+00 2.1634095886311167e-01 1.0155698405712050e+00  0.0000000000000000e+00 2.3686033338087395e-01 1.0117049909469380e+00  0.0000000000000000e+00 2.5768738042764061e-01 1.0051543670332892e+00  0.0000000000000000e+00 2.7878308547193137e-01 9.9621131477348612e-01  0.0000000000000000e+00 2.9949596431129072e-01 9.8538091871852196e-01  0.0000000000000000e+00 3.1954296197301568e-01 9.7317062773643759e-01  0.0000000000000000e+00 3.3883617081682799e-01 9.5995971223958121e-01  0.0000000000000000e+00 3.5759579189476898e-01 9.4584773739099393e-01  0.0000000000000000e+00 3.7609868771568361e-01 9.3079653935427520e-01  0.0000000000000000e+00 3.9437093414775121e-01 9.1488679750920721e-01  0.0000000000000000e+00 4.1221979045957874e-01 8.9841541291260363e-01  0.0000000000000000e+00 4.2925785954268419e-01 8.8186312409722778e-01  0.0000000000000000e+00 4.4526355588852690e-01 8.6561675440283015e-01  0.0000000000000000e+00 4.6030709576184259e-01 8.4975475031786429e-01  0.0000000000000000e+00 4.7441602291533552e-01 8.3438272532082880e-01  0.0000000000000000e+00 4.8776671979769193e-01 8.1940342890272533e-01  0.0000000000000000e+00 5.0090123544198117e-01 8.0426377423424344e-01  0.0000000000000000e+00 5.1363760681275172e-01 7.8922793273021730e-01  0.0000000000000000e+00 5.2558691911178101e-01 7.7479540936272706e-01  0.0000000000000000e+00 5.3706452991094722e-01 7.6063991812997578e-01  0.0000000000000000e+00 5.4789817721687839e-01 7.4704066288417892e-01  0.0000000000000000e+00 5.5752736285387738e-01 7.3473902935465474e-01  0.0000000000000000e+00 5.6642433468618647e-01 7.2321288142374185e-01  0.0000000000000000e+00 5.7455017175865508e-01 7.1254320646121294e-01  0.0000000000000000e+00 5.8209796934678348e-01 7.0252207352490226e-01  0.0000000000000000e+00 5.8908424547124716e-01 6.9314511180651051e-01  0.0000000000000000e+00 5.9561255723654416e-01 6.8429929302045378e-01  0.0000000000000000e+00 6.0166117616879022e-01 6.7603076302144283e-01  0.0000000000000000e+00 6.0722125671737515e-01 6.6836933218607752e-01  0.0000000000000000e+00 6.1239754367062471e-01 6.6118448922995809e-01  0.0000000000000000e+00 6.1716519900657285e-01 6.5452183586784540e-01  0.0000000000000000e+00 6.2140067002698118e-01 6.4856971477577785e-01  0.0000000000000000e+00 6.2508195164299341e-01 6.4336690998638102e-01  0.0000000000000000e+00 6.2819972478434960e-01 6.3894299815291344e-01  0.0000000000000000e+00 6.3094410764728881e-01 6.3503442679641486e-01  0.0000000000000000e+00 6.3313883265352633e-01 6.3189795364392121e-01  0.0000000000000000e+00 6.3489870889777378e-01 6.2937771846805179e-01  0.0000000000000000e+00 6.3666489568933415e-01 6.2683986311858553e-01  0.0000000000000000e+00 6.3787881910170785e-01 6.2509718920155732e-01  0.0000000000000000e+00 6.3730368445900043e-01 6.2592166590853870e-01  0.0000000000000000e+00 6.3682179948896545e-01 6.2661439450698098e-01  0.0000000000000000e+00 6.3598235609192355e-01 6.2782040442467701e-01  0.0000000000000000e+00 6.3463102350014677e-01 6.2976042401624621e-01  0.0000000000000000e+00 6.3277316547509332e-01 6.3242060158727265e-01  0.0000000000000000e+00 6.3060424264859882e-01 6.3551873824444671e-01  0.0000000000000000e+00 6.2796966990248126e-01 6.3926905629811237e-01  0.0000000000000000e+00 6.2546451823296190e-01 6.4282812093414854e-01  0.0000000000000000e+00 6.2172746096899800e-01 6.4810895885142783e-01  0.0000000000000000e+00 6.1783829301808524e-01 6.5357668559881898e-01  0.0000000000000000e+00 6.1361641189883953e-01 6.5948530722561316e-01  0.0000000000000000e+00 6.0924532602943771e-01 6.6556516340725547e-01  0.0000000000000000e+00 6.0444042062412118e-01 6.7220650051984188e-01  0.0000000000000000e+00 5.9911130608340268e-01 6.7952363449785658e-01  0.0000000000000000e+00 5.9362751659454926e-01 6.8699671536133788e-01  0.0000000000000000e+00 5.8787104842514026e-01 6.9477921572064050e-01  0.0000000000000000e+00 5.8181585474915887e-01 7.0289611559359666e-01  0.0000000000000000e+00 5.7539056773188713e-01 7.1143349049388616e-01  0.0000000000000000e+00 5.6847506270628434e-01 7.2052926941965156e-01  0.0000000000000000e+00 5.6106355452398726e-01 7.3017451432028191e-01  0.0000000000000000e+00 5.5323329506605701e-01 7.4024401203478352e-01  0.0000000000000000e+00 5.4489943530348306e-01 7.5082485819247646e-01  0.0000000000000000e+00 5.3601189054413378e-01 7.6195098512246273e-01  0.0000000000000000e+00 5.2663330866649416e-01 7.7351279308650489e-01  0.0000000000000000e+00 5.1682661703515564e-01 7.8540204179678064e-01  0.0000000000000000e+00 5.0672277271708155e-01 7.9743467767134646e-01  0.0000000000000000e+00 4.9639121351012694e-01 8.0950536867155176e-01  0.0000000000000000e+00 4.8589366089869579e-01 8.2152508348321529e-01  0.0000000000000000e+00 4.7521020797157548e-01 8.3349819326033436e-01  0.0000000000000000e+00 4.6430419745143342e-01 8.4544424918524186e-01  0.0000000000000000e+00 4.5297790621765077e-01 8.5754834788574830e-01  0.0000000000000000e+00 4.4108460458747134e-01 8.6991370774466503e-01  0.0000000000000000e+00 4.2843606131631207e-01 8.8267117695221808e-01  0.0000000000000000e+00 4.1518156582581839e-01 8.9558273440874592e-01  0.0000000000000000e+00 4.0144080184896525e-01 9.0846199694416852e-01  0.0000000000000000e+00 3.8743597004874886e-01 9.2103439404600729e-01  0.0000000000000000e+00 3.7333327551073131e-01 9.3310097039972106e-01  0.0000000000000000e+00 3.5926228346011269e-01 9.4453237415807068e-01  0.0000000000000000e+00 3.4485687777938334e-01 9.5554058038352918e-01  0.0000000000000000e+00 3.3027678014430945e-01 9.6597314701262649e-01  0.0000000000000000e+00 3.1550133932827634e-01 9.7575141587507763e-01  0.0000000000000000e+00 2.9997548218950770e-01 9.8508598322261032e-01  0.0000000000000000e+00 2.8376210768985444e-01 9.9376858870245488e-01  0.0000000000000000e+00 2.6718605229203302e-01 1.0013816768054808e+00  0.0000000000000000e+00 2.5096541794632654e-01 1.0075256022843995e+00  0.0000000000000000e+00 2.3445223541667384e-01 1.0122688835881950e+00  0.0000000000000000e+00 2.1851362374985955e-01 1.0152609089660340e+00  0.0000000000000000e+00 2.0267311837566768e-01 1.0164873900559264e+00  0.0000000000000000e+00 1.8695465355810456e-01 1.0158163405055045e+00  0.0000000000000000e+00 1.7095536899000663e-01 1.0127891651849825e+00  0.0000000000000000e+00 1.5491139713930407e-01 1.0070901516606268e+00  0.0000000000000000e+00 1.3931876770444027e-01 9.9840961430151876e-01  0.0000000000000000e+00 1.2457004261725237e-01 9.8674039109854905e-01  0.0000000000000000e+00 1.1079616593922921e-01 9.7210429287632572e-01  0.0000000000000000e+00 8.5875625952631027e-02 9.3296922658573211e-01  0.0000000000000000e+00 7.4652959596372664e-02 9.0764172893284745e-01  0.0000000000000000e+00 6.4414100447802755e-02 8.7834133714652807e-01  0.0000000000000000e+00 5.5412383534192672e-02 8.4559070088775068e-01  0.0000000000000000e+00 4.7742561403826836e-02 8.1032420368461078e-01  0.0000000000000000e+00 4.1314820895445657e-02 7.7305183384838261e-01  0.0000000000000000e+00 3.5936777045506844e-02 7.3387203045213367e-01  0.0000000000000000e+00 3.1446384142584848e-02 6.9273028710929330e-01  0.0000000000000000e+00 2.7750987243087791e-02 6.5023443315292784e-01  0.0000000000000000e+00 2.4781226407087197e-02 6.0768583594131698e-01  0.0000000000000000e+00 2.2444651923013998e-02 5.6639105177586779e-01  0.0000000000000000e+00 2.0604615232070373e-02 5.2680888502859691e-01  0.0000000000000000e+00 1.9150125962368817e-02 4.8867973122590680e-01  0.0000000000000000e+00 1.7995016400213011e-02 4.5162329921911204e-01  0.0000000000000000e+00 1.7095596117638234e-02 4.1623859115254547e-01  0.0000000000000000e+00 1.6422963221566989e-02 3.8303101464224931e-01  0.0000000000000000e+00 1.5933115909575475e-02 3.5227439609548228e-01  0.0000000000000000e+00 1.5589777448996291e-02 3.2383473393642287e-01  0.0000000000000000e+00 1.5395008838475662e-02 2.9706501357404524e-01  0.0000000000000000e+00 1.5304116220048625e-02 2.7202238510452692e-01  0.0000000000000000e+00 1.5329895012240970e-02 2.4893339811342341e-01  0.0000000000000000e+00 1.5442098415464662e-02 2.2797629402597411e-01  0.0000000000000000e+00 1.5635663757075688e-02 2.0885991180582894e-01  0.0000000000000000e+00 1.5920460488347301e-02 1.9118407846650351e-01  0.0000000000000000e+00 1.6288643300571587e-02 1.7484585597692123e-01  0.0000000000000000e+00 1.6733395917140317e-02 1.5994951084666453e-01  0.0000000000000000e+00 1.7241329247640783e-02 1.4650637433215691e-01  0.0000000000000000e+00 1.7803357653497529e-02 1.3446465560331800e-01  0.0000000000000000e+00 1.8445634547052739e-02 1.2342744432323140e-01  0.0000000000000000e+00 1.9160319635479484e-02 1.1332040408633418e-01  0.0000000000000000e+00 1.9944210091327356e-02 1.0415064308052221e-01  0.0000000000000000e+00 2.0775819450589164e-02 9.5934140618331359e-02  0.0000000000000000e+00 2.1648603820580474e-02 8.8603659601910245e-02  0.0000000000000000e+00 2.2579727371285718e-02 8.1971657778513715e-02  0.0000000000000000e+00 2.3586157256318668e-02 7.5893017333389309e-02  0.0000000000000000e+00 2.4644890192932079e-02 7.0410757129665325e-02  0.0000000000000000e+00 2.5740437924037737e-02 6.5506535379000447e-02  0.0000000000000000e+00 2.6866268635060388e-02 6.1100908500990030e-02  0.0000000000000000e+00 2.7999005158605560e-02 5.7210548091760308e-02  0.0000000000000000e+00 2.9160404278283276e-02 5.3724668708686252e-02  0.0000000000000000e+00 3.0368688481477609e-02 5.0533567381479377e-02  0.0000000000000000e+00 3.1606542090189010e-02 4.7635949033340036e-02  0.0000000000000000e+00 3.2866689205590091e-02 4.5020303341910588e-02  0.0000000000000000e+00 3.4082899767180867e-02 4.2726623142872684e-02  0.0000000000000000e+00 3.5278917668054750e-02 4.0696813661664957e-02  0.0000000000000000e+00 3.6421552945945658e-02 3.8921884077142782e-02  0.0000000000000000e+00 3.7515685421990907e-02 3.7355889589160966e-02  0.0000000000000000e+00 3.8578598382854143e-02 3.5954590547046063e-02  0.0000000000000000e+00 3.9605766002039494e-02 3.4719111892714635e-02  0.0000000000000000e+00 4.0595955070725352e-02 3.3606854418910335e-02  0.0000000000000000e+00 4.1555390552530873e-02 3.2596005822716254e-02  0.0000000000000000e+00 4.2435214925520340e-02 3.1724439443517154e-02  0.0000000000000000e+00 4.3224918222404159e-02 3.0985319536951762e-02  0.0000000000000000e+00 4.3923065141454061e-02 3.0355738862941423e-02  0.0000000000000000e+00 4.4521391124738428e-02 2.9836020630136073e-02  0.0000000000000000e+00 4.5007389312834045e-02 2.9426878195266772e-02  0.0000000000000000e+00 3.2090083287256960e-02 4.6607119289226978e-02  0.0000000000000000e+00 3.2343203812237070e-01 9.7059768048351669e-01  0.0000000000000000e+00 2.6247116139306245e-02 6.3419291344588499e-02  0.0000000000000000e+00 1.0321707512178770e-01 9.6223023911362726e-01  0.0000000000000000e+00 4.4914942262627655e-02 2.9508870587005995e-02  0.0000000000000000e+00 5.7602999638066443e-01 7.1058514668282624e-01  0.0000000000000000e+00 1.7178849003917217e-02 1.4806132829691521e-01  0.0000000000000000e+00 1.7923382996094906e-02 4.4893143283947667e-01  0.0000000000000000e+00 6.3375156910870201e-01 6.3101881500603274e-01  0.0000000000000000e+00 4.0191971375058216e-01 9.0802747802420070e-01  0.0000000000000000e+00 2.2019915395904678e-02 8.5847662711084863e-02  0.0000000000000000e+00 4.6750206671564587e-01 8.4196657715630174e-01  0.0000000000000000e+00 4.8084492137350493e-01 8.2721522314511453e-01  0.0000000000000000e+00 1.7510845179267126e-02 1.4045697489305578e-01  0.0000000000000000e+00 2.6766729372904885e-01 1.0012071713553243e+00  0.0000000000000000e+00 3.1867246029307232e-02 4.7042356086822230e-02  0.0000000000000000e+00 5.3856755162026471e-01 7.5876794682568394e-01  0.0000000000000000e+00 5.8851225777605809e-01 6.9391394289414310e-01  0.0000000000000000e+00 3.8197048584899973e-02 3.6440361243715039e-02  0.0000000000000000e+00 1.5309889826467018e-02 2.5908533453266619e-01  0.0000000000000000e+00 1.4763616577011418e-01 1.0034572968563031e+00  0.0000000000000000e+00 1.8521887783774942e-02 4.6954724425583860e-01  0.0000000000000000e+00 4.1499313370050001e-02 3.2650857098555114e-02  0.0000000000000000e+00 6.1664534563735240e-01 6.5525385995082752e-01  0.0000000000000000e+00 6.0698274192101331e-02 8.6571258197278755e-01  0.0000000000000000e+00 2.9315796479433210e-02 6.6938192821361586e-01  0.0000000000000000e+00 4.4568825257489508e-02 2.9797950259508172e-02  0.0000000000000000e+00 3.8878612110157647e-02 3.5591155724755331e-02  0.0000000000000000e+00 2.2470532696416831e-01 1.0142689688249986e+00  0.0000000000000000e+00 6.1221304598344661e-01 6.6144192574264005e-01  0.0000000000000000e+00 1.5393977544992013e-02 2.3585074367529910e-01  0.0000000000000000e+00 2.1516248686741350e-02 8.9622061570873407e-02  0.0000000000000000e+00 6.3122067073469268e-01 6.3463791598817032e-01  0.0000000000000000e+00 3.2134640448743819e-02 6.9942752520944285e-01  0.0000000000000000e+00 5.0993323819871400e-02 8.2627803628557617e-01  0.0000000000000000e+00 4.5637756349415581e-02 2.8918908018606162e-02  0.0000000000000000e+00 5.2907218252012278e-01 7.7051985951512714e-01  0.0000000000000000e+00 3.9231485883035078e-01 9.1671517875023589e-01  0.0000000000000000e+00 4.2576588168132083e-02 3.1597237600443806e-02  0.0000000000000000e+00 2.7288059269749306e-02 5.9589484638635136e-02  0.0000000000000000e+00 1.5944296912522982e-01 1.0090371524851482e+00  0.0000000000000000e+00 6.2668168825119630e-01 6.4109930769053247e-01  0.0000000000000000e+00 1.5601871051333175e-02 3.2334214618557122e-01  0.0000000000000000e+00 3.4637004396221499e-02 4.1747236994722124e-02  0.0000000000000000e+00 1.6015149383549324e-02 1.8663294492817417e-01  0.0000000000000000e+00 6.3479527808279190e-01 6.2952186446983549e-01  0.0000000000000000e+00 5.9628352089629089e-01 6.8338363946495095e-01  0.0000000000000000e+00 2.2407290698084975e-02 5.6541836295302283e-01  0.0000000000000000e+00 3.4774236710511952e-01 9.5339305011780262e-01  0.0000000000000000e+00 3.5679607253725355e-02 4.0065943656205999e-02  0.0000000000000000e+00 2.3651132825380602e-02 7.5474244502440932e-02  0.0000000000000000e+00 1.6102308051112190e-02 1.8249492857231475e-01  0.0000000000000000e+00 5.6233033544852740e-01 7.2853121889822614e-01  0.0000000000000000e+00 1.5725014111375356e-02 3.3601481396379002e-01  0.0000000000000000e+00 2.7342804050773706e-01 9.9864423201651698e-01  0.0000000000000000e+00 1.9341117682356173e-02 1.1101944711541560e-01  0.0000000000