<?xml version="1.0"?>
<VTKFile type="UnstructuredGrid"  version="0.1"  >
<UnstructuredGrid>
<Piece  NumberOfPoints="4940" NumberOfCells="9650">
<Points>
<DataArray  type="Float64"  NumberOfComponents="3"  format="ascii">500 250 0  0 250 0  250 500 0  250 0 0  256.8885856082646 499.9050767557906 0  263.7719401218049 499.6203791065173 0  270.6448364229772 499.1461232471188 0  277.5020553257866 498.4826693209355 0  284.3383895508592 497.6305211460281 0  291.1486476865662 496.5903258312597 0  297.9276581259182 495.3628732847843 0  304.6702729675493 493.9490956196674 0  311.3713719748657 492.3500664368026 0  318.0258664141369 490.5670000199653 0  324.6287029687753 488.6012504015818 0  331.1748675330201 486.4543103455647 0  337.6593890460416 484.1278102064655 0  344.0773432429536 481.6235166997244 0  350.4238564271474 478.9433315480048 0  356.694109139292 476.0892900492477 0  362.88333985546 473.0635595140469 0  368.9868485575419 469.8684376402048 0  375.0000003153078 466.5063507640667 0  380.9182288257928 462.9798520074548 0  386.7370398729688 459.2916193419558 0  392.4520147244077 455.444453565817 0  398.0588135356345 451.4412761437442 0  403.5531785622926 447.285127045646 0  408.9309374414144 442.9791624087773 0  414.1880064015299 438.5266521049243 0  419.3203932989752 433.9309773069245 0  424.324200661095 429.1956279150535 0  429.1956286596235 424.3241998957182 0  433.9309780058756 419.3203925397119 0  438.5266527445345 414.1880056671062 0  442.9791630130591 408.9309367076756 0  447.2851276060475 403.5531778422888 0  451.4412766621026 398.0588128303826 0  455.4444540361634 392.4520140460735 0  459.2916197786263 386.7370392045948 0  462.9798524073514 380.9182281752347 0  466.5063511234856 374.9999996927758 0  469.8684379657123 368.9868479560565 0  473.0635598144817 362.8833392617846 0  476.0892903190255 356.6941085676214 0  478.9433317963513 350.4238558609745 0  481.6235169154735 344.0773427117675 0  484.12781039012 337.6593885555221 0  486.4543105028062 331.1748670749914 0  488.601250531677 324.6287025528375 0  490.5670001317469 318.0258660188321 0  492.3500665291326 311.3713716102628 0  493.949095695951 304.6702726271575 0  495.3628733416623 297.9276578347343 0  496.5903258712341 291.1486474470129 0  497.6305211749058 284.3383893426084 0  498.4826693388848 277.502055163614 0  499.1461232580606 270.6448362909296 0  499.6203791109319 263.7719400417897 0  499.9050767571306 256.8885855596534 0  499.9050767559877 243.1114143988867 0  499.6203791069493 236.2280598860241 0  499.1461232485393 229.3551635941651 0  498.4826693235677 222.4979446979962 0  497.6305211491849 215.6616104719064 0  496.5903258357701 208.8513523404629 0  495.3628732906988 202.0723419043604 0  493.9490956264813 195.3297270628552 0  492.3500664487791 188.6286280724281 0  490.5670000344809 181.9741336371959 0  488.6012504175981 175.3712970824318 0  486.4543103623226 168.8251325157939 0  484.1278102222298 162.3406109960628 0  481.6235167152198 155.9226567951971 0  478.9433315621651 149.5761436051346 0  476.0892900516498 143.3058908657982 0  473.063559513628 137.1166601437124 0  469.8684376406648 131.0131514433083 0  466.5063507675389 124.9999996907064 0  462.9798520124137 119.0817711822745 0  459.2916193464549 113.2629601339176 0  455.4444535642773 107.5479852733717 0  451.4412761528674 101.9411864767781 0  447.2851270583545 96.44682145403524 0  442.9791624165781 91.06906256805769 0  438.5266521117469 85.81199360630404 0  433.9309773156125 80.67960671046254 0  429.1956279150353 75.67579933888632 0  424.3241998888952 70.80437133373906 0  419.3203925223282 66.06902197812161 0  414.1880056411937 61.47334723289828 0  408.9309366751728 57.0208369601728 0  403.5531778009394 52.71487236176898 0  398.058812796452 48.55872331295853 0  392.4520140187753 44.55554594490843 0  386.7370391799677 40.70838020528396 0  380.9182281475119 37.02014757560744 0  374.9999996718656 33.49364886444181 0  368.9868479340393 30.13156202237255 0  362.8833392380029 26.93644017348339 0  356.6941085456942 23.91070967062674 0  350.4238558420009 21.0566681953261 0  344.0773426899492 18.37648307566465 0  337.6593885328982 15.87218960140942 0  331.1748670549786 13.54568949032341 0  324.6287025315056 11.39874946165088 0  318.0258660010876 9.432999863235466 0  311.3713716017894 7.649933468721599 0  304.6702726190621 6.050904302234756 0  297.9276578269805 4.637126656823085 0  291.148647441857 3.409674127905504 0  284.3383893425031 2.369478825079682 0  277.502055159398 1.517330660648639 0  270.6448362875833 0.853876741662134 0  263.7719400401456 0.3796208889774277 0  256.8885855592052 0.09492324285704967 0  243.1114143979462 0.09492324403817065 0  236.2280598850882 0.3796208931023841 0  229.3551635938215 0.8538767514891958 0  222.4979446968584 1.517330676558146 0  215.6616104703111 2.369478851036291 0  208.8513523382973 3.409674164591252 0  202.0723419066374 4.637126708856528 0  195.3297270659513 6.050904372824903 0  188.628628074828 7.649933550613184 0  181.9741336377093 9.432999965373938 0  175.3712970793675 11.39874958336037 0  168.8251325057572 13.54568964112298 0  162.340610986655 15.87218978129263 0  155.9226567874317 18.37648328793418 0  149.576143602509 21.05666843898663 0  143.3058908718157 23.91070994551046 0  137.1166601505524 26.93644048291054 0  131.0131514451933 30.13156235831508 0  124.9999996848412 33.49364923584736 0  119.0817711715717 37.0201479941652 0  113.2629601211624 40.70838066187849 0  107.5479852622251 44.55554644345162 0  101.9411864693332 48.55872385260452 0  96.44682143286516 52.71487295812284 0  91.06906254351222 57.02083760363669 0  85.81199358272519 61.4733479087879 0  80.67960667988106 66.06902271253972 0  75.67579930062769 70.80437212218331 0  70.80437129287643 75.67580015310926 0  66.06902193673014 80.67960752263491 0  61.47334718684866 85.81199441168215 0  57.02083692524275 91.0690633672404 0  52.71487232786438 96.44682224262129 0  48.55872328070024 101.941187247437 0  44.55554591578033 107.5479860232332 0  40.7083801742321 113.2629608675606 0  37.02014754791168 119.0817718975441 0  33.49364883372994 125.000000381329 0  30.13156199866361 131.0131521097709 0  26.9364401549829 137.1166607985551 0  23.91070965524918 143.3058914868915 0  21.05666818346614 149.576144185037 0  18.37648306853811 155.9226573275967 0  15.8721895918909 162.3406114925245 0  13.54568948170046 168.8251329701392 0  11.39874945301878 175.3712974960928 0  9.432999857087736 181.9741340206533 0  7.649933466342702 188.6286284076045 0  6.050904301250966 195.3297273853278 0  4.637126656808988 202.0723421730917 0  3.409674127767772 208.8513525589684 0  2.369478824521138 215.6616106615248 0  1.517330660909465 222.4979448382452 0  0.8538767414496533 229.355163714981 0  0.3796208887135322 236.2280599646376 0  0.09492324266324204 243.1114144478261 0  0.0949232442452228 256.8885856095658 0  0.3796208935834784 263.7719401236316 0  0.8538767530323526 270.6448364248016 0  1.517330679476544 277.5020553295092 0  2.369478854618649 284.3383895555228 0  3.409674170191892 291.1486476952655 0  4.6371267162381 297.9276581311522 0  6.050904381420935 304.6702729724059 0  7.649933562385399 311.3713719716595 0  9.43299997979841 318.0258664133013 0  11.3987495994252 324.6287029719946 0  13.54568965885832 331.174867545904 0  15.87218979367188 337.6593890464085 0  18.37648329843151 344.0773432384132 0  21.05666844777872 350.423856417535 0  23.91070995156048 356.6941091410045 0  26.93644048988043 362.8833398632205 0  30.13156235982007 368.9868485575877 0  33.49364924138357 375.0000003247478 0  37.0201480006036 380.9182288389023 0  40.70838066758398 386.7370398875706 0  44.55554644477201 392.4520147396792 0  48.55872386086904 398.0588135419111 0  52.71487295981296 403.5531785693063 0  57.02083760525949 408.9309374584583 0  61.47334790862246 414.1880064170849 0  66.06902271205095 419.320393319588 0  70.80437211216579 424.3242006890749 0  75.67580013809859 429.195628692521 0  80.6796075127923 433.930978054209 0  85.81199439754931 438.5266528008431 0  91.06906334717917 442.9791630582355 0  96.44682221438322 447.2851276501571 0  101.9411872243843 451.441276702356 0  107.5479859945825 455.4444540643537 0  113.2629608446994 459.2916198108319 0  119.0817718768376 462.9798524393601 0  125.0000003647644 466.5063511567065 0  131.0131521012763 469.8684379967393 0  137.1166607840049 473.0635598376539 0  143.3058914748804 476.0892903390826 0  149.5761441732679 478.9433318113714 0  155.9226573130112 481.6235169255377 0  162.3406114779862 484.1278104026658 0  168.8251329570439 486.4543105138039 0  175.3712974805475 488.601250542119 0  181.9741340135204 490.5670001408953 0  188.6286284005059 492.3500665318597 0  195.3297273788229 493.9490956972913 0  202.0723421640089 495.3628733414168 0  208.8513525529672 496.5903258712308 0  215.6616106544547 497.6305211744985 0  222.4979448327038 498.4826693384772 0  229.3551637102845 499.1461232581612 0  236.2280599621369 499.6203791111485 0  243.1114144470173 499.9050767573145 0  155.2373389820306 474.8197567317462 0  25.36256300907667 153.9152755065208 0  432.3709625126712 412.6214396304305 0  6.013151705810699 246.637913163471 0  246.6379131630491 493.986848294322 0  338.6995838441862 22.68244767887072 0  477.3175523131281 338.6995838660569 0  493.9868482700757 246.6379131399102 0  246.6201155078769 6.218451882810491 0  417.6179310263282 72.7156044707053 0  102.2232990934413 445.0100869616822 0  63.66330858966404 92.20354579482142 0  391.3105220491464 50.73522820883105 0  72.79295043967942 418.0702734974704 0  448.290574428537 108.25674339002 0  402.4604651193511 440.7462829841712 0  97.55317348421397 59.11376320116034 0  136.7376477664901 33.58246472647134 0  363.3288394375288 465.6947312928271 0  44.0678766556007 381.0860953771871 0  469.6905266180034 142.3890690100806 0  22.68244791668644 338.6995843487432 0  338.699584349159 477.317552078365 0  173.389488083762 18.6681884918202 0  483.4809734778481 179.7121987795732 0  13.50237455842738 306.4709525540879 0  305.9825168523021 487.24416992
[...]
<PointData  Vectors="f_12"> 
<DataArray  type="Float64"  Name="f_12"  NumberOfComponents="3" format="ascii">0.0000000000000000e+00 2.9412658944404264e-02 6.6912994201680509e-01  0.0000000000000000e+00 2.1521971451961755e-01 1.0156907010502734e+00  0.0000000000000000e+00 3.4629661395338775e-02 4.1885028646741089e-02  0.0000000000000000e+00 7.1960562047104693e-01 5.0153382761801135e-01  0.0000000000000000e+00 3.4860641156576354e-02 4.1491788773065093e-02  0.0000000000000000e+00 3.4980707974748691e-02 4.1293532190901115e-02  0.0000000000000000e+00 3.5063519589483561e-02 4.1150868107178620e-02  0.0000000000000000e+00 3.5056112392827056e-02 4.1171757738298342e-02  0.0000000000000000e+00 3.4978953806299944e-02 4.1301624241233785e-02  0.0000000000000000e+00 3.4828911873392009e-02 4.1550745631644029e-02  0.0000000000000000e+00 3.4613580084550628e-02 4.1914148507594430e-02  0.0000000000000000e+00 3.4345494531737415e-02 4.2377082577685223e-02  0.0000000000000000e+00 3.4020796675632209e-02 4.2949738078578367e-02  0.0000000000000000e+00 3.3638243781651561e-02 4.3643405545922158e-02  0.0000000000000000e+00 3.3163619221922881e-02 4.4544867044290254e-02  0.0000000000000000e+00 3.2731619528156473e-02 4.5384122612500993e-02  0.0000000000000000e+00 3.2145698521670193e-02 4.6586308869694809e-02  0.0000000000000000e+00 3.1601550764032774e-02 4.7762097140314007e-02  0.0000000000000000e+00 3.1013564209358694e-02 4.9107125234612067e-02  0.0000000000000000e+00 3.0397717296076206e-02 5.0586037449646383e-02  0.0000000000000000e+00 2.9769420592796237e-02 5.2178846506310064e-02  0.0000000000000000e+00 2.9107134334607775e-02 5.4010993756059250e-02  0.0000000000000000e+00 2.8431818336240679e-02 5.6018546609100626e-02  0.0000000000000000e+00 2.7771330394516385e-02 5.8108322177330765e-02  0.0000000000000000e+00 2.7095791250985761e-02 6.0417295753033270e-02  0.0000000000000000e+00 2.6398059520335353e-02 6.3016838471985914e-02  0.0000000000000000e+00 2.5673298562997517e-02 6.5946805983800358e-02  0.0000000000000000e+00 2.4981895098132662e-02 6.8988724715475666e-02  0.0000000000000000e+00 2.4295855503741377e-02 7.2294296804640681e-02  0.0000000000000000e+00 2.3590052399125507e-02 7.6047407016466131e-02  0.0000000000000000e+00 2.2922597403662523e-02 7.9996322296300285e-02  0.0000000000000000e+00 2.2262679922114708e-02 8.4339245899429566e-02  0.0000000000000000e+00 2.1619803875328223e-02 8.9093118132418686e-02  0.0000000000000000e+00 2.0998571619715179e-02 9.4202418700978535e-02  0.0000000000000000e+00 2.0374402121143397e-02 9.9973987739131923e-02  0.0000000000000000e+00 1.9779364288159615e-02 1.0624413542096794e-01  0.0000000000000000e+00 1.9214668397490260e-02 1.1293346112679975e-01  0.0000000000000000e+00 1.8668851646426537e-02 1.2036581424981274e-01  0.0000000000000000e+00 1.8153389797286375e-02 1.2860895123728133e-01  0.0000000000000000e+00 1.7679424461320509e-02 1.3744608053823532e-01  0.0000000000000000e+00 1.7245479699195577e-02 1.4694551637130646e-01  0.0000000000000000e+00 1.6838494138959992e-02 1.5756377373312391e-01  0.0000000000000000e+00 1.6459728560173460e-02 1.6937907617310874e-01  0.0000000000000000e+00 1.6132867310414561e-02 1.8211926788571403e-01  0.0000000000000000e+00 1.5855049830657660e-02 1.9607065027114912e-01  0.0000000000000000e+00 1.5630225810695026e-02 2.1131316855299695e-01  0.0000000000000000e+00 1.5462035895128139e-02 2.2791111332773722e-01  0.0000000000000000e+00 1.5361558104879148e-02 2.4592370975903863e-01  0.0000000000000000e+00 1.5325418308383907e-02 2.6608711630020193e-01  0.0000000000000000e+00 1.5369564746298825e-02 2.8784312348502239e-01  0.0000000000000000e+00 1.5511871119313386e-02 3.1138513377685362e-01  0.0000000000000000e+00 1.5759260273353847e-02 3.3692415312118240e-01  0.0000000000000000e+00 1.6139515207454047e-02 3.6460624904533828e-01  0.0000000000000000e+00 1.6674946534678249e-02 3.9496345014547796e-01  0.0000000000000000e+00 1.7395101791246897e-02 4.2766854242125496e-01  0.0000000000000000e+00 1.8341588932634080e-02 4.6245931120274641e-01  0.0000000000000000e+00 1.9576570073863171e-02 4.9970248299409542e-01  0.0000000000000000e+00 2.1181137529878859e-02 5.3919150653631664e-01  0.0000000000000000e+00 2.3249611901463702e-02 5.8088720594968635e-01  0.0000000000000000e+00 2.5736390334547173e-02 6.2325340234427706e-01  0.0000000000000000e+00 3.3726512722353011e-02 7.1441137809736377e-01  0.0000000000000000e+00 3.9269976724682694e-02 7.5882986199768465e-01  0.0000000000000000e+00 4.6075778833681781e-02 8.0133766061136635e-01  0.0000000000000000e+00 5.4659572981477375e-02 8.4223507883104431e-01  0.0000000000000000e+00 6.4911915130772532e-02 8.7984843515040001e-01  0.0000000000000000e+00 7.7044466353774724e-02 9.1350530477794012e-01  0.0000000000000000e+00 9.0894504176469826e-02 9.4248321526552947e-01  0.0000000000000000e+00 1.0645416196303779e-01 9.6660184987866382e-01  0.0000000000000000e+00 1.2360689211759053e-01 9.8585746111007044e-01  0.0000000000000000e+00 1.4216041021580073e-01 1.0002701964401837e+00  0.0000000000000000e+00 1.6201412880797669e-01 1.0099607170062121e+00  0.0000000000000000e+00 1.8269064744398156e-01 1.0152456319637884e+00  0.0000000000000000e+00 2.0415622047814588e-01 1.0164955134943354e+00  0.0000000000000000e+00 2.2615817084618986e-01 1.0140518495291111e+00  0.0000000000000000e+00 2.4853213509955246e-01 1.0083298035657116e+00  0.0000000000000000e+00 2.7101965824733554e-01 9.9976182575083816e-01  0.0000000000000000e+00 2.9344477101790373e-01 9.8873943669004649e-01  0.0000000000000000e+00 3.1562414194845168e-01 9.7568707743167060e-01  0.0000000000000000e+00 3.3749216511485014e-01 9.6093083819348379e-01  0.0000000000000000e+00 3.5900967585785298e-01 9.4474961273196700e-01  0.0000000000000000e+00 3.8019400288948074e-01 9.2732908959331739e-01  0.0000000000000000e+00 4.0064758646257459e-01 9.0919626748854376e-01  0.0000000000000000e+00 4.2052149590143612e-01 8.9044822549276925e-01  0.0000000000000000e+00 4.3957773728585237e-01 8.7146429463242436e-01  0.0000000000000000e+00 4.5793069554663135e-01 8.5230169955721635e-01  0.0000000000000000e+00 4.7561133728444704e-01 8.3306227749907080e-01  0.0000000000000000e+00 4.9264028772094876e-01 8.1383669110014045e-01  0.0000000000000000e+00 5.0899631348608831e-01 7.9475355640151624e-01  0.0000000000000000e+00 5.2459821367253745e-01 7.7599925054343799e-01  0.0000000000000000e+00 5.3942736900856736e-01 7.5769843972199846e-01  0.0000000000000000e+00 5.5344294320499754e-01 7.3997866566873094e-01  0.0000000000000000e+00 5.6670425592866047e-01 7.2284641115503223e-01  0.0000000000000000e+00 5.7934619998277226e-01 7.0618799440576452e-01  0.0000000000000000e+00 5.9127560082502706e-01 6.9018595290329265e-01  0.0000000000000000e+00 6.0247122887370486e-01 6.7491849830174666e-01  0.0000000000000000e+00 6.1326517959309468e-01 6.5997172272365889e-01  0.0000000000000000e+00 6.2346610694750959e-01 6.4565323366592997e-01  0.0000000000000000e+00 6.3282210770528624e-01 6.3234948858261752e-01  0.0000000000000000e+00 6.4172812342668206e-01 6.1953399974873635e-01  0.0000000000000000e+00 6.5014867850364788e-01 6.0729321682362891e-01  0.0000000000000000e+00 6.5770027970170220e-01 5.9620079906741330e-01  0.0000000000000000e+00 6.6480949055934035e-01 5.8566917675621710e-01  0.0000000000000000e+00 6.7139210011591421e-01 5.7583527097529419e-01  0.0000000000000000e+00 6.7754938890986927e-01 5.6657124109354595e-01  0.0000000000000000e+00 6.8323999916502176e-01 5.5794878376792667e-01  0.0000000000000000e+00 6.8851678399205829e-01 5.4990382370170365e-01  0.0000000000000000e+00 6.9334477942736339e-01 5.4250070753487578e-01  0.0000000000000000e+00 6.9771870194731622e-01 5.3575929288934765e-01  0.0000000000000000e+00 7.0173666489707642e-01 5.2953748996584649e-01  0.0000000000000000e+00 7.0539345326217595e-01 5.2385054704683842e-01  0.0000000000000000e+00 7.0860427201624432e-01 5.1883949753675607e-01  0.0000000000000000e+00 7.1136213538934390e-01 5.1451978238907048e-01  0.0000000000000000e+00 7.1368267038267830e-01 5.1087605053637286e-01  0.0000000000000000e+00 7.1572707950646164e-01 5.0765848468369601e-01  0.0000000000000000e+00 7.1736325879085872e-01 5.0507785039835973e-01  0.0000000000000000e+00 7.1868311761967896e-01 5.0299347342144896e-01  0.0000000000000000e+00 7.2001132604833873e-01 5.0089117225382485e-01  0.0000000000000000e+00 7.2093036578389413e-01 4.9943794369599903e-01  0.0000000000000000e+00 7.2048564707188578e-01 5.0014044358879917e-01  0.0000000000000000e+00 7.2011632511930512e-01 5.0072510941523496e-01  0.0000000000000000e+00 7.1947964579604007e-01 5.0173267698948776e-01  0.0000000000000000e+00 7.1846156868006672e-01 5.0334302104917006e-01  0.0000000000000000e+00 7.1706206592770760e-01 5.0555291712473982e-01  0.0000000000000000e+00 7.1542822570914810e-01 5.0812899002959744e-01  0.0000000000000000e+00 7.1343845826169283e-01 5.1125931010354353e-01  0.0000000000000000e+00 7.1155756916914259e-01 5.1421509041318436e-01  0.0000000000000000e+00 7.0871986110698304e-01 5.1865856717546510e-01  0.0000000000000000e+00 7.0574945692236291e-01 5.2329486288603511e-01  0.0000000000000000e+00 7.0249627842881301e-01 5.2835798800073630e-01  0.0000000000000000e+00 6.9909595506778854e-01 5.3362938536129811e-01  0.0000000000000000e+00 6.9531005417758707e-01 5.3947472501081017e-01  0.0000000000000000e+00 6.9105231523741162e-01 5.4602024302162422e-01  0.0000000000000000e+00 6.8661348655016352e-01 5.5281076223856029e-01  0.0000000000000000e+00 6.8189723545944891e-01 5.5998803662596519e-01  0.0000000000000000e+00 6.7690162029236667e-01 5.6754785516753981e-01  0.0000000000000000e+00 6.7159867278271224e-01 5.7552640523519183e-01  0.0000000000000000e+00 6.6592129294198577e-01 5.8401201843481121e-01  0.0000000000000000e+00 6.5989239213746553e-01 5.9296217249660077e-01  0.0000000000000000e+00 6.5360362622604329e-01 6.0222885283609240e-01  0.0000000000000000e+00 6.4699859866395781e-01 6.1188589439857721e-01  0.0000000000000000e+00 6.4002081487665829e-01 6.2200283013129143e-01  0.0000000000000000e+00 6.3267425925534282e-01 6.3255934929385960e-01  0.0000000000000000e+00 6.2493958239827696e-01 6.4356706138122066e-01  0.0000000000000000e+00 6.1684596072915243e-01 6.5496825515846480e-01  0.0000000000000000e+00 6.0838867194916435e-01 6.6675153143638577e-01  0.0000000000000000e+00 5.9959772721469473e-01 6.7885796330725068e-01  0.0000000000000000e+00 5.9048984236584778e-01 6.9124645662255957e-01  0.0000000000000000e+00 5.8112082977462121e-01 7.0382401424399166e-01  0.0000000000000000e+00 5.7143194204856318e-01 7.1665214369659613e-01  0.0000000000000000e+00 5.6138583992427749e-01 7.2975631948804531e-01  0.0000000000000000e+00 5.5083345363352909e-01 7.4330520454324212e-01  0.0000000000000000e+00 5.3985463986089388e-01 7.5715914413818730e-01  0.0000000000000000e+00 5.2842998631436722e-01 7.7131177713003296e-01  0.0000000000000000e+00 5.1659491299134841e-01 7.8568181597555886e-01  0.0000000000000000e+00 5.0436028948059908e-01 8.0021682104493086e-01  0.0000000000000000e+00 4.9179621208663782e-01 8.1480440911258656e-01  0.0000000000000000e+00 4.7862256950622023e-01 8.2970089062008645e-01  0.0000000000000000e+00 4.6515069989658281e-01 8.4452845989365621e-01  0.0000000000000000e+00 4.5153772312435148e-01 8.5906861047215655e-01  0.0000000000000000e+00 4.3732925617486840e-01 8.7374324023196814e-01  0.0000000000000000e+00 4.2251770635189534e-01 8.8849818490060362e-01  0.0000000000000000e+00 4.0716258064526190e-01 9.0316295739887864e-01  0.0000000000000000e+00 3.9169991516159081e-01 9.1727677821829157e-01  0.0000000000000000e+00 3.7523648736272486e-01 9.3151990732018009e-01  0.0000000000000000e+00 3.5869701899720108e-01 9.4498123899160591e-01  0.0000000000000000e+00 3.4176795175097718e-01 9.5782016379857826e-01  0.0000000000000000e+00 3.2472683253081774e-01 9.6975641781811361e-01  0.0000000000000000e+00 3.0713438502968476e-01 9.8090093279227630e-01  0.0000000000000000e+00 2.8911055709950756e-01 9.9104055119650203e-01  0.0000000000000000e+00 2.7082285956334340e-01 9.9983984612505372e-01  0.0000000000000000e+00 2.5236775189968169e-01 1.0070493576214306e+00  0.0000000000000000e+00 2.3379863588232119e-01 1.0124272615860761e+00  0.0000000000000000e+00 1.9680063100714618e-01 1.0165045647870374e+00  0.0000000000000000e+00 1.7867963210843560e-01 1.0145659951308330e+00  0.0000000000000000e+00 1.6091825515445568e-01 1.0095921620755404e+00  0.0000000000000000e+00 1.4363400023525008e-01 1.0011609945699820e+00  0.0000000000000000e+00 1.2703166244923167e-01 9.8899011537893633e-01  0.0000000000000000e+00 1.1132841774445425e-01 9.7278367085337270e-01  0.0000000000000000e+00 9.6722573616537202e-02 9.5243217888658294e-01  0.0000000000000000e+00 8.3349019335775029e-02 9.2778020279092854e-01  0.0000000000000000e+00 7.1302306493284090e-02 8.9881197436051807e-01  0.0000000000000000e+00 6.0665096719260327e-02 8.6560068537206747e-01  0.0000000000000000e+00 5.1488717289763460e-02 8.2859896907353092e-01  0.0000000000000000e+00 4.3796704104490637e-02 7.8843418207219929e-01  0.0000000000000000e+00 3.7476862401490375e-02 7.4596398058367319e-01  0.0000000000000000e+00 3.2356562373667679e-02 7.0168750366945176e-01  0.0000000000000000e+00 2.8272835934660432e-02 6.5672028884937483e-01  0.0000000000000000e+00 2.5046965012938106e-02 6.1170072904333139e-01  0.0000000000000000e+00 2.2516882014092451e-02 5.6755901690580657e-01  0.0000000000000000e+00 2.0550404701476951e-02 5.2523280296659403e-01  0.0000000000000000e+00 1.9031465618634537e-02 4.8457866293874619e-01  0.0000000000000000e+00 1.7850933501162822e-02 4.4603260898403690e-01  0.0000000000000000e+00 1.6964781227544509e-02 4.0963164439744015e-01  0.0000000000000000e+00 1.6308480822763427e-02 3.7574056860790034e-01  0.0000000000000000e+00 1.5838835461352837e-02 3.4440046159490684e-01  0.0000000000000000e+00 1.5533318821304687e-02 3.1540722789374981e-01  0.0000000000000000e+00 1.5363651555446035e-02 2.8866208204118626e-01  0.0000000000000000e+00 1.5316038460140438e-02 2.6398682616263180e-01  0.0000000000000000e+00 1.5374091154834423e-02 2.4130780123281173e-01  0.0000000000000000e+00 1.5517600860978321e-02 2.2083938707028047e-01  0.0000000000000000e+00 1.5751520682605519e-02 2.0213740799561331e-01  0.0000000000000000e+00 1.6059724161784431e-02 1.8516220338692643e-01  0.0000000000000000e+00 1.6447346369155527e-02 1.6971931241548588e-01  0.0000000000000000e+00 1.6900573125223198e-02 1.5569285702297758e-01  0.0000000000000000e+00 1.7411861080942906e-02 1.4304348805161513e-01  0.0000000000000000e+00 1.7981438538542862e-02 1.3161627390006983e-01  0.0000000000000000e+00 1.8611567594018871e-02 1.2124299444878393e-01  0.0000000000000000e+00 1.9288287753398466e-02 1.1199475558716770e-01  0.0000000000000000e+00 2.0012541893256727e-02 1.0367787041160409e-01  0.0000000000000000e+00 2.0787555456015329e-02 9.6064651756207833e-02  0.0000000000000000e+00 2.1586821561939945e-02 8.9325587095916870e-02  0.0000000000000000e+00 2.2414410140251587e-02 8.3329727115575958e-02  0.0000000000000000e+00 2.3274413032883509e-02 7.7905003311972545e-02  0.0000000000000000e+00 2.4153336339559333e-02 7.3052734884943599e-02  0.0000000000000000e+00 2.5062720776080211e-02 6.8661381845589620e-02  0.0000000000000000e+00 2.5946895251656641e-02 6.4821397027221631e-02  0.0000000000000000e+00 2.6849796846285429e-02 6.1344664406619807e-02  0.0000000000000000e+00 2.7728797881980568e-02 5.8281033728236599e-02  0.0000000000000000e+00 2.8580217187114884e-02 5.5564431369425737e-02  0.0000000000000000e+00 2.9413720089332709e-02 5.3143277591597551e-02  0.0000000000000000e+00 3.0211860924915304e-02 5.1064726316128378e-02  0.0000000000000000e+00 3.0962846022513028e-02 4.9234073419785689e-02  0.0000000000000000e+00 3.1689951519533133e-02 4.7572619333976787e-02  0.0000000000000000e+00 3.2350485976399147e-02 4.6168218345146457e-02  0.0000000000000000e+00 3.2943516617414036e-02 4.4987507059378068e-02  0.0000000000000000e+00 3.3470839929865479e-02 4.3970207378499271e-02  0.0000000000000000e+00 3.3930547952091314e-02 4.3121904624181258e-02  0.0000000000000000e+00 3.4301960911004667e-02 4.2461959920450078e-02  0.0000000000000000e+00 2.4405284102754731e-02 7.1793674437179086e-02  0.0000000000000000e+00 4.5876271198827517e-01 8.5140253801899168e-01  0.0000000000000000e+00 2.0496941546100045e-02 9.8800337381171791e-02  0.0000000000000000e+00 2.2290141470010857e-01 1.0146462958803217e+00  0.0000000000000000e+00 3.4030774302642584e-02 4.2958257697647037e-02  0.0000000000000000e+00 6.7252012043841425e-01 5.7414067320934159e-01  0.0000000000000000e+00 1.5390262232991636e-02 2.3970201985230691e-01  0.0000000000000000e+00 3.1616342611559121e-02 6.9475357538395854e-01  0.0000000000000000e+00 7.1778446323505440e-01 5.0441010151167576e-01  0.0000000000000000e+00 5.3075883329533047e-01 7.6845036004690359e-01  0.0000000000000000e+00 1.7613878388547020e-02 1.3873942401432893e-01  0.0000000000000000e+00 5.8381251289188618e-01 7.0022466619079049e-01  0.0000000000000000e+00 5.9655983193671236e-01 6.8300532012283777e-01  0.0000000000000000e+00 1.5430255592689034e-02 2.3157626693839986e-01  0.0000000000000000e+00 4.1005927100010303e-01 9.0045777668312310e-01  0.0000000000000000e+00 2.4436807457835573e-02 7.1609739635647526e-02  0.0000000000000000e+00 6.4196978222731393e-01 6.1918476337714201e-01  0.0000000000000000e+00 6.8237221926035752e-01 5.5926482681490397e-01  0.0000000000000000e+00 2.9059490413362914e-02 5.4156747094628040e-02  0.0000000000000000e+00 1.7346580237751059e-02 4.2615360575267935e-01  0.0000000000000000e+00 2.8267297043597517e-01 9.9431401163263489e-01  0.0000000000000000e+00 3.4703391687538408e-02 7.2363205422634058e-01  0.0000000000000000e+00 3.1514746465391125e-02 4.7972438544020959e-02  0.0000000000000000e+00 7.0475876481362987e-01 5.2483957992915409e-01  0.0000000000000000e+00 1.5457302425738248e-01 1.0069482001810188e+00  0.0000000000000000e+00 7.6504334623481843e-02 9.1227925162706391e-01  0.0000000000000000e+00 3.3750826893889543e-02 4.3465351430991415e-02  0.0000000000000000e+00 2.9484852856405494e-02 5.2976632424446918e-02  0.0000000000000000e+00 3.6507742752598371e-01 9.3987802523174968e-01  0.0000000000000000e+00 7.0148980970365993e-01 5.2991946438747539e-01  0.0000000000000000e+00 1.6449034340408061e-02 3.8310711867205621e-01  0.0000000000000000e+00 1.7454963030089497e-02 1.4222179590300582e-01  0.0000000000000000e+00 7.1585490861649193e-01 5.0745470223642863e-01  0.0000000000000000e+00 8.5317145646396669e-02 9.3177335144660323e-01  0.0000000000000000e+00 1.3425206062411260e-01 9.9483746885199065e-01  0.0000000000000000e+00 3.4580892157373824e-02 4.1995465626078907e-02  0.0000000000000000e+00 6.3541891636699077e-01 6.2862329659961980e-01  0.0000000000000000e+00 5.2064737278716744e-01 7.8079214120648011e-01  0.0000000000000000e+00 3.2273103854592748e-02 4.6357183026903753e-02  0.0000000000000000e+00 2.1018071923906197e-02 9.3990150062976646e-02  0.0000000000000000e+00 2.9414248384090186e-01 9.8836555903480905e-01  0.0000000000000000e+00 7.1247293594739625e-01 5.1277517926672678e-01  0.0000000000000000e+00 2.0309982860833499e-02 5.1864886470273819e-01  0.0000000000000000e+00 2.6355287943382662e-02 6.3204727578098058e-02  0.0000000000000000e+00 1.5450165647820731e-02 3.0305513824578079e-01  0.0000000000000000e+00 7.1856295599606446e-01 5.0317979537608937e-01  0.0000000000000000e+00 6.8895605027210260e-01 5.4922956017895563e-01  0.0000000000000000e+00 5.0816344019615343e-02 8.2554107716086877e-01  0.0000000000000000e+00 4.8359971056968454e-01 8.2411678812397060e-01  0.0000000000000000e+00 2.7024733251571665e-02 6.0727532772020039e-02  0.0000000000000000e+00 1.8776574486104643e-02 1.1880784148703868e-01  0.0000000000000000e+00 1.5430720535275317e-02 3.0184026964311239e-01  0.0000000000000000e+00 6.6088895312083873e-01 5.9148470181663881e-01  0.0000000000000000e+00 2.1358751843414209e-02 5.4378934082283015e-01  0.0000000000000000e+00 4.1287103861994634e-01 8.9777392600992512e-01  0.0000000000000000e+00 1.6230048777045578e-02 1.7798720688331043e-01  0.0000000000