<?xml version="1.0"?>
<VTKFile type="UnstructuredGrid"  version="0.1"  >
<UnstructuredGrid>
<Piece  NumberOfPoints="4940" NumberOfCells="9650">
<Points>
<DataArray  type="Float64"  NumberOfComponents="3"  format="ascii">500 250 0  0 250 0  250 500 0  250 0 0  256.8885856082646 499.9050767557906 0  263.7719401218049 499.6203791065173 0  270.6448364229772 499.1461232471188 0  277.5020553257866 498.4826693209355 0  284.3383895508592 497.6305211460281 0  291.1486476865662 496.5903258312597 0  297.9276581259182 495.3628732847843 0  304.6702729675493 493.9490956196674 0  311.3713719748657 492.3500664368026 0  318.0258664141369 490.5670000199653 0  324.6287029687753 488.6012504015818 0  331.1748675330201 486.4543103455647 0  337.6593890460416 484.1278102064655 0  344.0773432429536 481.6235166997244 0  350.4238564271474 478.9433315480048 0  356.694109139292 476.0892900492477 0  362.88333985546 473.0635595140469 0  368.9868485575419 469.8684376402048 0  375.0000003153078 466.5063507640667 0  380.9182288257928 462.9798520074548 0  386.7370398729688 459.2916193419558 0  392.4520147244077 455.444453565817 0  398.0588135356345 451.4412761437442 0  403.5531785622926 447.285127045646 0  408.9309374414144 442.9791624087773 0  414.1880064015299 438.5266521049243 0  419.3203932989752 433.9309773069245 0  424.324200661095 429.1956279150535 0  429.1956286596235 424.3241998957182 0  433.9309780058756 419.3203925397119 0  438.5266527445345 414.1880056671062 0  442.9791630130591 408.9309367076756 0  447.2851276060475 403.5531778422888 0  451.4412766621026 398.0588128303826 0  455.4444540361634 392.4520140460735 0  459.2916197786263 386.7370392045948 0  462.9798524073514 380.9182281752347 0  466.5063511234856 374.9999996927758 0  469.8684379657123 368.9868479560565 0  473.0635598144817 362.8833392617846 0  476.0892903190255 356.6941085676214 0  478.9433317963513 350.4238558609745 0  481.6235169154735 344.0773427117675 0  484.12781039012 337.6593885555221 0  486.4543105028062 331.1748670749914 0  488.601250531677 324.6287025528375 0  490.5670001317469 318.0258660188321 0  492.3500665291326 311.3713716102628 0  493.949095695951 304.6702726271575 0  495.3628733416623 297.9276578347343 0  496.5903258712341 291.1486474470129 0  497.6305211749058 284.3383893426084 0  498.4826693388848 277.502055163614 0  499.1461232580606 270.6448362909296 0  499.6203791109319 263.7719400417897 0  499.9050767571306 256.8885855596534 0  499.9050767559877 243.1114143988867 0  499.6203791069493 236.2280598860241 0  499.1461232485393 229.3551635941651 0  498.4826693235677 222.4979446979962 0  497.6305211491849 215.6616104719064 0  496.5903258357701 208.8513523404629 0  495.3628732906988 202.0723419043604 0  493.9490956264813 195.3297270628552 0  492.3500664487791 188.6286280724281 0  490.5670000344809 181.9741336371959 0  488.6012504175981 175.3712970824318 0  486.4543103623226 168.8251325157939 0  484.1278102222298 162.3406109960628 0  481.6235167152198 155.9226567951971 0  478.9433315621651 149.5761436051346 0  476.0892900516498 143.3058908657982 0  473.063559513628 137.1166601437124 0  469.8684376406648 131.0131514433083 0  466.5063507675389 124.9999996907064 0  462.9798520124137 119.0817711822745 0  459.2916193464549 113.2629601339176 0  455.4444535642773 107.5479852733717 0  451.4412761528674 101.9411864767781 0  447.2851270583545 96.44682145403524 0  442.9791624165781 91.06906256805769 0  438.5266521117469 85.81199360630404 0  433.9309773156125 80.67960671046254 0  429.1956279150353 75.67579933888632 0  424.3241998888952 70.80437133373906 0  419.3203925223282 66.06902197812161 0  414.1880056411937 61.47334723289828 0  408.9309366751728 57.0208369601728 0  403.5531778009394 52.71487236176898 0  398.058812796452 48.55872331295853 0  392.4520140187753 44.55554594490843 0  386.7370391799677 40.70838020528396 0  380.9182281475119 37.02014757560744 0  374.9999996718656 33.49364886444181 0  368.9868479340393 30.13156202237255 0  362.8833392380029 26.93644017348339 0  356.6941085456942 23.91070967062674 0  350.4238558420009 21.0566681953261 0  344.0773426899492 18.37648307566465 0  337.6593885328982 15.87218960140942 0  331.1748670549786 13.54568949032341 0  324.6287025315056 11.39874946165088 0  318.0258660010876 9.432999863235466 0  311.3713716017894 7.649933468721599 0  304.6702726190621 6.050904302234756 0  297.9276578269805 4.637126656823085 0  291.148647441857 3.409674127905504 0  284.3383893425031 2.369478825079682 0  277.502055159398 1.517330660648639 0  270.6448362875833 0.853876741662134 0  263.7719400401456 0.3796208889774277 0  256.8885855592052 0.09492324285704967 0  243.1114143979462 0.09492324403817065 0  236.2280598850882 0.3796208931023841 0  229.3551635938215 0.8538767514891958 0  222.4979446968584 1.517330676558146 0  215.6616104703111 2.369478851036291 0  208.8513523382973 3.409674164591252 0  202.0723419066374 4.637126708856528 0  195.3297270659513 6.050904372824903 0  188.628628074828 7.649933550613184 0  181.9741336377093 9.432999965373938 0  175.3712970793675 11.39874958336037 0  168.8251325057572 13.54568964112298 0  162.340610986655 15.87218978129263 0  155.9226567874317 18.37648328793418 0  149.576143602509 21.05666843898663 0  143.3058908718157 23.91070994551046 0  137.1166601505524 26.93644048291054 0  131.0131514451933 30.13156235831508 0  124.9999996848412 33.49364923584736 0  119.0817711715717 37.0201479941652 0  113.2629601211624 40.70838066187849 0  107.5479852622251 44.55554644345162 0  101.9411864693332 48.55872385260452 0  96.44682143286516 52.71487295812284 0  91.06906254351222 57.02083760363669 0  85.81199358272519 61.4733479087879 0  80.67960667988106 66.06902271253972 0  75.67579930062769 70.80437212218331 0  70.80437129287643 75.67580015310926 0  66.06902193673014 80.67960752263491 0  61.47334718684866 85.81199441168215 0  57.02083692524275 91.0690633672404 0  52.71487232786438 96.44682224262129 0  48.55872328070024 101.941187247437 0  44.55554591578033 107.5479860232332 0  40.7083801742321 113.2629608675606 0  37.02014754791168 119.0817718975441 0  33.49364883372994 125.000000381329 0  30.13156199866361 131.0131521097709 0  26.9364401549829 137.1166607985551 0  23.91070965524918 143.3058914868915 0  21.05666818346614 149.576144185037 0  18.37648306853811 155.9226573275967 0  15.8721895918909 162.3406114925245 0  13.54568948170046 168.8251329701392 0  11.39874945301878 175.3712974960928 0  9.432999857087736 181.9741340206533 0  7.649933466342702 188.6286284076045 0  6.050904301250966 195.3297273853278 0  4.637126656808988 202.0723421730917 0  3.409674127767772 208.8513525589684 0  2.369478824521138 215.6616106615248 0  1.517330660909465 222.4979448382452 0  0.8538767414496533 229.355163714981 0  0.3796208887135322 236.2280599646376 0  0.09492324266324204 243.1114144478261 0  0.0949232442452228 256.8885856095658 0  0.3796208935834784 263.7719401236316 0  0.8538767530323526 270.6448364248016 0  1.517330679476544 277.5020553295092 0  2.369478854618649 284.3383895555228 0  3.409674170191892 291.1486476952655 0  4.6371267162381 297.9276581311522 0  6.050904381420935 304.6702729724059 0  7.649933562385399 311.3713719716595 0  9.43299997979841 318.0258664133013 0  11.3987495994252 324.6287029719946 0  13.54568965885832 331.174867545904 0  15.87218979367188 337.6593890464085 0  18.37648329843151 344.0773432384132 0  21.05666844777872 350.423856417535 0  23.91070995156048 356.6941091410045 0  26.93644048988043 362.8833398632205 0  30.13156235982007 368.9868485575877 0  33.49364924138357 375.0000003247478 0  37.0201480006036 380.9182288389023 0  40.70838066758398 386.7370398875706 0  44.55554644477201 392.4520147396792 0  48.55872386086904 398.0588135419111 0  52.71487295981296 403.5531785693063 0  57.02083760525949 408.9309374584583 0  61.47334790862246 414.1880064170849 0  66.06902271205095 419.320393319588 0  70.80437211216579 424.3242006890749 0  75.67580013809859 429.195628692521 0  80.6796075127923 433.930978054209 0  85.81199439754931 438.5266528008431 0  91.06906334717917 442.9791630582355 0  96.44682221438322 447.2851276501571 0  101.9411872243843 451.441276702356 0  107.5479859945825 455.4444540643537 0  113.2629608446994 459.2916198108319 0  119.0817718768376 462.9798524393601 0  125.0000003647644 466.5063511567065 0  131.0131521012763 469.8684379967393 0  137.1166607840049 473.0635598376539 0  143.3058914748804 476.0892903390826 0  149.5761441732679 478.9433318113714 0  155.9226573130112 481.6235169255377 0  162.3406114779862 484.1278104026658 0  168.8251329570439 486.4543105138039 0  175.3712974805475 488.601250542119 0  181.9741340135204 490.5670001408953 0  188.6286284005059 492.3500665318597 0  195.3297273788229 493.9490956972913 0  202.0723421640089 495.3628733414168 0  208.8513525529672 496.5903258712308 0  215.6616106544547 497.6305211744985 0  222.4979448327038 498.4826693384772 0  229.3551637102845 499.1461232581612 0  236.2280599621369 499.6203791111485 0  243.1114144470173 499.9050767573145 0  155.2373389820306 474.8197567317462 0  25.36256300907667 153.9152755065208 0  432.3709625126712 412.6214396304305 0  6.013151705810699 246.637913163471 0  246.6379131630491 493.986848294322 0  338.6995838441862 22.68244767887072 0  477.3175523131281 338.6995838660569 0  493.9868482700757 246.6379131399102 0  246.6201155078769 6.218451882810491 0  417.6179310263282 72.7156044707053 0  102.2232990934413 445.0100869616822 0  63.66330858966404 92.20354579482142 0  391.3105220491464 50.73522820883105 0  72.79295043967942 418.0702734974704 0  448.290574428537 108.25674339002 0  402.4604651193511 440.7462829841712 0  97.55317348421397 59.11376320116034 0  136.7376477664901 33.58246472647134 0  363.3288394375288 465.6947312928271 0  44.0678766556007 381.0860953771871 0  469.6905266180034 142.3890690100806 0  22.68244791668644 338.6995843487432 0  338.699584349159 477.317552078365 0  173.389488083762 18.6681884918202 0  483.4809734778481 179.7121987795732 0  13.50237455842738 306.4709525540879 0  305.9825168523021 487.24416992
[...]
<PointData  Vectors="f_12"> 
<DataArray  type="Float64"  Name="f_12"  NumberOfComponents="3" format="ascii">0.0000000000000000e+00 3.0946728470757051e-01 2.9735751274599009e-01  0.0000000000000000e+00 3.5604030861058161e-01 2.9198263303552568e-01  0.0000000000000000e+00 2.9994986203717078e-01 3.2854492461882551e-01  0.0000000000000000e+00 3.2527617113404256e-01 2.5053007546126538e-01  0.0000000000000000e+00 2.9922190891984646e-01 3.2849670968288713e-01  0.0000000000000000e+00 2.9855584772897154e-01 3.2837461628945491e-01  0.0000000000000000e+00 2.9791381349108348e-01 3.2828289600740568e-01  0.0000000000000000e+00 2.9731450415629573e-01 3.2816980351058056e-01  0.0000000000000000e+00 2.9676088270955231e-01 3.2803480384633626e-01  0.0000000000000000e+00 2.9624946847595446e-01 3.2788200596666334e-01  0.0000000000000000e+00 2.9577909690776227e-01 3.2771654931361566e-01  0.0000000000000000e+00 2.9534928960996237e-01 3.2754149570055863e-01  0.0000000000000000e+00 2.9496066637316071e-01 3.2735215237745624e-01  0.0000000000000000e+00 2.9461801952470279e-01 3.2714086932879394e-01  0.0000000000000000e+00 2.9434054022699258e-01 3.2686667896961291e-01  0.0000000000000000e+00 2.9405687081515419e-01 3.2667708637116866e-01  0.0000000000000000e+00 2.9387379782355338e-01 3.2634936099093348e-01  0.0000000000000000e+00 2.9368919844881575e-01 3.2609247051942186e-01  0.0000000000000000e+00 2.9355654662488007e-01 3.2580048061359196e-01  0.0000000000000000e+00 2.9346206080849530e-01 3.2549520228033268e-01  0.0000000000000000e+00 2.9340605718074081e-01 3.2517552243262299e-01  0.0000000000000000e+00 2.9340462818423502e-01 3.2480971860699126e-01  0.0000000000000000e+00 2.9343946030604778e-01 3.2443105189145999e-01  0.0000000000000000e+00 2.9348547430510319e-01 3.2408666947886222e-01  0.0000000000000000e+00 2.9357167749399493e-01 3.2371904489650394e-01  0.0000000000000000e+00 2.9370577489304334e-01 3.2330651869200921e-01  0.0000000000000000e+00 2.9389202269230935e-01 3.2283585298091777e-01  0.0000000000000000e+00 2.9408394665499771e-01 3.2240733375283170e-01  0.0000000000000000e+00 2.9430510628047657e-01 3.2196641869026865e-01  0.0000000000000000e+00 2.9457549535181338e-01 3.2146176541281940e-01  0.0000000000000000e+00 2.9485721446234614e-01 3.2098253614692829e-01  0.0000000000000000e+00 2.9517159627190309e-01 3.2047083662288961e-01  0.0000000000000000e+00 2.9551857709377749e-01 3.1992477484510412e-01  0.0000000000000000e+00 2.9587718219690484e-01 3.1939226278475441e-01  0.0000000000000000e+00 2.9626814986864619e-01 3.1881294452435216e-01  0.0000000000000000e+00 2.9667928469958205e-01 3.1822162485089767e-01  0.0000000000000000e+00 2.9709959182297502e-01 3.1765107794757169e-01  0.0000000000000000e+00 2.9754669589888216e-01 3.1702796632263530e-01  0.0000000000000000e+00 2.9801777822449732e-01 3.1635123920599878e-01  0.0000000000000000e+00 2.9849775991144056e-01 3.1568516930811402e-01  0.0000000000000000e+00 2.9898607357001045e-01 3.1503900433526938e-01  0.0000000000000000e+00 2.9949177152595269e-01 3.1434184145607680e-01  0.0000000000000000e+00 3.0000992137504251e-01 3.1359534801104427e-01  0.0000000000000000e+00 3.0053500784750725e-01 3.1285480582276587e-01  0.0000000000000000e+00 3.0106793270617660e-01 3.1208847184697397e-01  0.0000000000000000e+00 3.0160677916549661e-01 3.1130141082993940e-01  0.0000000000000000e+00 3.0215036549926894e-01 3.1050026625098620e-01  0.0000000000000000e+00 3.0269881638720569e-01 3.0969777987536989e-01  0.0000000000000000e+00 3.0324538662496914e-01 3.0884345994084944e-01  0.0000000000000000e+00 3.0379180158880925e-01 3.0797424740721124e-01  0.0000000000000000e+00 3.0433926695449071e-01 3.0709673540282661e-01  0.0000000000000000e+00 3.0488281027985575e-01 3.0619651325748154e-01  0.0000000000000000e+00 3.0542678916595806e-01 3.0529373463718495e-01  0.0000000000000000e+00 3.0595807581687412e-01 3.0434669353808796e-01  0.0000000000000000e+00 3.0648592419556475e-01 3.0339336602289368e-01  0.0000000000000000e+00 3.0701244055107357e-01 3.0243783581378375e-01  0.0000000000000000e+00 3.0752494671977149e-01 3.0145268078237891e-01  0.0000000000000000e+00 3.0803083004303716e-01 3.0045676007970301e-01  0.0000000000000000e+00 3.0852851894705613e-01 2.9944842443162606e-01  0.0000000000000000e+00 3.0903700497157144e-01 2.9845972132863025e-01  0.0000000000000000e+00 3.0993912299448156e-01 2.9632738498258859e-01  0.0000000000000000e+00 3.1038958336610023e-01 2.9526842188572738e-01  0.0000000000000000e+00 3.1083852230934739e-01 2.9421056795511230e-01  0.0000000000000000e+00 3.1124962200129880e-01 2.9311861022057156e-01  0.0000000000000000e+00 3.1165162334969071e-01 2.9202332840273587e-01  0.0000000000000000e+00 3.1203878835168009e-01 2.9092172547745604e-01  0.0000000000000000e+00 3.1242470554898283e-01 2.8982297592014267e-01  0.0000000000000000e+00 3.1278555393334095e-01 2.8871052488262383e-01  0.0000000000000000e+00 3.1313581153717940e-01 2.8759607226550749e-01  0.0000000000000000e+00 3.1347416749203239e-01 2.8647962128664461e-01  0.0000000000000000e+00 3.1378306086618074e-01 2.8535255320787356e-01  0.0000000000000000e+00 3.1409765121533273e-01 2.8423424342560805e-01  0.0000000000000000e+00 3.1440071851699741e-01 2.8311360873395014e-01  0.0000000000000000e+00 3.1467492250819468e-01 2.8199004425894764e-01  0.0000000000000000e+00 3.1493423383286911e-01 2.8086924034102917e-01  0.0000000000000000e+00 3.1518713600998982e-01 2.7975264690936458e-01  0.0000000000000000e+00 3.1542885603492871e-01 2.7864085778282399e-01  0.0000000000000000e+00 3.1566200427858743e-01 2.7753435369845553e-01  0.0000000000000000e+00 3.1588130880166299e-01 2.7643464518999089e-01  0.0000000000000000e+00 3.1608223561411525e-01 2.7534441599317999e-01  0.0000000000000000e+00 3.1630173106642651e-01 2.7425574562555238e-01  0.0000000000000000e+00 3.1648142578713112e-01 2.7318961189969854e-01  0.0000000000000000e+00 3.1667167000328283e-01 2.7212628594297800e-01  0.0000000000000000e+00 3.1684878412117545e-01 2.7107861748302364e-01  0.0000000000000000e+00 3.1702311738916317e-01 2.7004401190645871e-01  0.0000000000000000e+00 3.1719168429834588e-01 2.6902476641451911e-01  0.0000000000000000e+00 3.1735479342577744e-01 2.6802284416976169e-01  0.0000000000000000e+00 3.1751564295613838e-01 2.6703783994875813e-01  0.0000000000000000e+00 3.1767293970150595e-01 2.6607402981889094e-01  0.0000000000000000e+00 3.1783280570971778e-01 2.6512649877770916e-01  0.0000000000000000e+00 3.1798979824936402e-01 2.6420336223904800e-01  0.0000000000000000e+00 3.1814908232622918e-01 2.6330105152852507e-01  0.0000000000000000e+00 3.1832016736266749e-01 2.6240846060289219e-01  0.0000000000000000e+00 3.1848529316576013e-01 2.6155407676022979e-01  0.0000000000000000e+00 3.1864200969748913e-01 2.6074463558098993e-01  0.0000000000000000e+00 3.1882255658253955e-01 2.5993247877564207e-01  0.0000000000000000e+00 3.1901085571999466e-01 2.5914456334528585e-01  0.0000000000000000e+00 3.1919294608385429e-01 2.5840974136583311e-01  0.0000000000000000e+00 3.1939664709405508e-01 2.5767745472771847e-01  0.0000000000000000e+00 3.1961176828783522e-01 2.5696970920607592e-01  0.0000000000000000e+00 3.1981611177458891e-01 2.5634188740473379e-01  0.0000000000000000e+00 3.2004138723509012e-01 2.5572095713859921e-01  0.0000000000000000e+00 3.2028221111665039e-01 2.5512609209297676e-01  0.0000000000000000e+00 3.2053829732990780e-01 2.5455928636030795e-01  0.0000000000000000e+00 3.2080310314496385e-01 2.5403649725027055e-01  0.0000000000000000e+00 3.2108519154083315e-01 2.5354041558405288e-01  0.0000000000000000e+00 3.2138148406820616e-01 2.5308153551643536e-01  0.0000000000000000e+00 3.2169158209056670e-01 2.5266365726936657e-01  0.0000000000000000e+00 3.2202000171052997e-01 2.5227462717361299e-01  0.0000000000000000e+00 3.2237000983697495e-01 2.5190671958844763e-01  0.0000000000000000e+00 3.2273422775617977e-01 2.5158725302530638e-01  0.0000000000000000e+00 3.2310852849156940e-01 2.5132758186651760e-01  0.0000000000000000e+00 3.2350105357891901e-01 2.5110590135072697e-01  0.0000000000000000e+00 3.2391626939541029e-01 2.5090467612672246e-01  0.0000000000000000e+00 3.2434909401694545e-01 2.5074584952992968e-01  0.0000000000000000e+00 3.2480429241682918e-01 2.5061517184191895e-01  0.0000000000000000e+00 3.2575476878122595e-01 2.5052467719855653e-01  0.0000000000000000e+00 3.2629553918693327e-01 2.5040766207037735e-01  0.0000000000000000e+00 3.2679976133279331e-01 2.5050854315281640e-01  0.0000000000000000e+00 3.2734893446845792e-01 2.5057091108891577e-01  0.0000000000000000e+00 3.2791611277934013e-01 2.5066970885074924e-01  0.0000000000000000e+00 3.2849756661333063e-01 2.5081284502382228e-01  0.0000000000000000e+00 3.2909359842596680e-01 2.5100275397447547e-01  0.0000000000000000e+00 3.2971356204462776e-01 2.5121329164518436e-01  0.0000000000000000e+00 3.3033924874650961e-01 2.5147975979087994e-01  0.0000000000000000e+00 3.3102166620274842e-01 2.5170028917185749e-01  0.0000000000000000e+00 3.3166971344852147e-01 2.5206329384506398e-01  0.0000000000000000e+00 3.3234472154849659e-01 2.5243199949863054e-01  0.0000000000000000e+00 3.3303077270778148e-01 2.5283265764071189e-01  0.0000000000000000e+00 3.3375158558211360e-01 2.5323918367939047e-01  0.0000000000000000e+00 3.3448280078767462e-01 2.5368209934440539e-01  0.0000000000000000e+00 3.3520758773845294e-01 2.5418010758639104e-01  0.0000000000000000e+00 3.3595237302245645e-01 2.5469637073503049e-01  0.0000000000000000e+00 3.3670191139140065e-01 2.5524888240426646e-01  0.0000000000000000e+00 3.3746190743675936e-01 2.5582808720845041e-01  0.0000000000000000e+00 3.3823862418299644e-01 2.5642635523468271e-01  0.0000000000000000e+00 3.3900908652559020e-01 2.5706514285272891e-01  0.0000000000000000e+00 3.3976719505068070e-01 2.5774515863259179e-01  0.0000000000000000e+00 3.4053948168791054e-01 2.5844023410678107e-01  0.0000000000000000e+00 3.4131915504056065e-01 2.5915575313333333e-01  0.0000000000000000e+00 3.4210063879600577e-01 2.5989472004232378e-01  0.0000000000000000e+00 3.4287883942408509e-01 2.6065853806135530e-01  0.0000000000000000e+00 3.4364726773328219e-01 2.6144955557547561e-01  0.0000000000000000e+00 3.4441159967813206e-01 2.6226186578646637e-01  0.0000000000000000e+00 3.4516464120381130e-01 2.6309777700799564e-01  0.0000000000000000e+00 3.4590775675595753e-01 2.6395425812626278e-01  0.0000000000000000e+00 3.4664223203552208e-01 2.6482930945670130e-01  0.0000000000000000e+00 3.4736704620463482e-01 2.6572126430774040e-01  0.0000000000000000e+00 3.4808836716912045e-01 2.6662793527271517e-01  0.0000000000000000e+00 3.4879893596758554e-01 2.6754943714064333e-01  0.0000000000000000e+00 3.4945540084631654e-01 2.6850124543358572e-01  0.0000000000000000e+00 3.5009803001783613e-01 2.6946603051502371e-01  0.0000000000000000e+00 3.5071669190679511e-01 2.7044498307507642e-01  0.0000000000000000e+00 3.5132145212187643e-01 2.7143528235056691e-01  0.0000000000000000e+00 3.5190620292007141e-01 2.7243731641369395e-01  0.0000000000000000e+00 3.5249130091512626e-01 2.7344647803144606e-01  0.0000000000000000e+00 3.5299212148478010e-01 2.7448085240416603e-01  0.0000000000000000e+00 3.5344653982095903e-01 2.7552528953540051e-01  0.0000000000000000e+00 3.5395176785332388e-01 2.7656772041648842e-01  0.0000000000000000e+00 3.5437708002611962e-01 2.7762779413991540e-01  0.0000000000000000e+00 3.5473459626263792e-01 2.7870086252375231e-01  0.0000000000000000e+00 3.5504682198507365e-01 2.7978050157681011e-01  0.0000000000000000e+00 3.5544276411461267e-01 2.8085517142927391e-01  0.0000000000000000e+00 3.5562347732291028e-01 2.8195581855116447e-01  0.0000000000000000e+00 3.5586654347437391e-01 2.8305389868015385e-01  0.0000000000000000e+00 3.5601291588347495e-01 2.8415606746075617e-01  0.0000000000000000e+00 3.5624007819049330e-01 2.8526449632542039e-01  0.0000000000000000e+00 3.5633456640671851e-01 2.8637941355500873e-01  0.0000000000000000e+00 3.5634222285442091e-01 2.8749540024006431e-01  0.0000000000000000e+00 3.5632476393696461e-01 2.8861505252461878e-01  0.0000000000000000e+00 3.5626275589028833e-01 2.8973408244436805e-01  0.0000000000000000e+00 3.5615541982996074e-01 2.9085492525190515e-01  0.0000000000000000e+00 3.5583746368314489e-01 2.9310500142475215e-01  0.0000000000000000e+00 3.5555730575808420e-01 2.9422236044810113e-01  0.0000000000000000e+00 3.5526947995649827e-01 2.9534267464822411e-01  0.0000000000000000e+00 3.5490659459899443e-01 2.9645669922945700e-01  0.0000000000000000e+00 3.5450191729774638e-01 2.9756858296607314e-01  0.0000000000000000e+00 3.5404836243753912e-01 2.9867560780597180e-01  0.0000000000000000e+00 3.5355226879492219e-01 2.9977752574955552e-01  0.0000000000000000e+00 3.5299910414298680e-01 3.0087175889827478e-01  0.0000000000000000e+00 3.5238806773814962e-01 3.0195572460397413e-01  0.0000000000000000e+00 3.5171586016057110e-01 3.0302606950508992e-01  0.0000000000000000e+00 3.5100650644341874e-01 3.0408848320606474e-01  0.0000000000000000e+00 3.5021933775706809e-01 3.0512850408472331e-01  0.0000000000000000e+00 3.4943407277850425e-01 3.0617195201249670e-01  0.0000000000000000e+00 3.4859090369486778e-01 3.0719686420936254e-01  0.0000000000000000e+00 3.4768583252348234e-01 3.0819658598293770e-01  0.0000000000000000e+00 3.4681919704841413e-01 3.0922047631247535e-01  0.0000000000000000e+00 3.4587075303307491e-01 3.1020624208244763e-01  0.0000000000000000e+00 3.4481919670583600e-01 3.1114171809301389e-01  0.0000000000000000e+00 3.4378101683616963e-01 3.1208255478565267e-01  0.0000000000000000e+00 3.4270270747330178e-01 3.1300166088625342e-01  0.0000000000000000e+00 3.4160879449573606e-01 3.1390896625967035e-01  0.0000000000000000e+00 3.4048002608830846e-01 3.1479026623310091e-01  0.0000000000000000e+00 3.3931952657896142e-01 3.1564721126245027e-01  0.0000000000000000e+00 3.3814438598600705e-01 3.1648961796109598e-01  0.0000000000000000e+00 3.3691511917476263e-01 3.1728174842991191e-01  0.0000000000000000e+00 3.3568687759101778e-01 3.1806647317077436e-01  0.0000000000000000e+00 3.3444612169259025e-01 3.1883389602759249e-01  0.0000000000000000e+00 3.3315943098278972e-01 3.1954145709857462e-01  0.0000000000000000e+00 3.3187486534174515e-01 3.2023764866548998e-01  0.0000000000000000e+00 3.3058631695679913e-01 3.2091486254986079e-01  0.0000000000000000e+00 3.2928815686124990e-01 3.2156377416641418e-01  0.0000000000000000e+00 3.2797789975693525e-01 3.2217391406594043e-01  0.0000000000000000e+00 3.2666457224358370e-01 3.2275540265095504e-01  0.0000000000000000e+00 3.2535514340975408e-01 3.2331597693915687e-01  0.0000000000000000e+00 3.2405337314670185e-01 3.2386266143424908e-01  0.0000000000000000e+00 3.2273836509598047e-01 3.2434208931774061e-01  0.0000000000000000e+00 3.2143145201982110e-01 3.2478873814241555e-01  0.0000000000000000e+00 3.2015088349889748e-01 3.2526197257848105e-01  0.0000000000000000e+00 3.1887177063570099e-01 3.2567871229308942e-01  0.0000000000000000e+00 3.1760162660302260e-01 3.2604870208601933e-01  0.0000000000000000e+00 3.1635037191544674e-01 3.2640517522388923e-01  0.0000000000000000e+00 3.1511527332317540e-01 3.2672470787041746e-01  0.0000000000000000e+00 3.1390332656274866e-01 3.2703759497346641e-01  0.0000000000000000e+00 3.1270875120560493e-01 3.2728760852135369e-01  0.0000000000000000e+00 3.1154058186047812e-01 3.2753941483218402e-01  0.0000000000000000e+00 3.1039740275822736e-01 3.2774939918890916e-01  0.0000000000000000e+00 3.0928279739179254e-01 3.2793202024995022e-01  0.0000000000000000e+00 3.0819491962573520e-01 3.2810329333863630e-01  0.0000000000000000e+00 3.0713953963960189e-01 3.2823976665860127e-01  0.0000000000000000e+00 3.0611809035393822e-01 3.2834164243742020e-01  0.0000000000000000e+00 3.0512614169806368e-01 3.2844271875900755e-01  0.0000000000000000e+00 3.0417157907795844e-01 3.2850654420312980e-01  0.0000000000000000e+00 3.0325672437303319e-01 3.2853885190588433e-01  0.0000000000000000e+00 3.0237739949998532e-01 3.2855467588436155e-01  0.0000000000000000e+00 3.0153230227019112e-01 3.2856196293731582e-01  0.0000000000000000e+00 3.0072960766201789e-01 3.2854296915465386e-01  0.0000000000000000e+00 3.1442465577231715e-01 3.2631319097338041e-01  0.0000000000000000e+00 3.5293992230564264e-01 2.7596752145797127e-01  0.0000000000000000e+00 2.9622990618594303e-01 3.1864372413446701e-01  0.0000000000000000e+00 3.5524817682985788e-01 2.9132128835649246e-01  0.0000000000000000e+00 3.0054109480678048e-01 3.2798027467431740e-01  0.0000000000000000e+00 3.2026292133287138e-01 2.5522415028090406e-01  0.0000000000000000e+00 3.0239799903197434e-01 3.0968049140202197e-01  0.0000000000000000e+00 3.0953781472785086e-01 2.9661042398151249e-01  0.0000000000000000e+00 3.2534761587417810e-01 2.5098115275021626e-01  0.0000000000000000e+00 3.1755888740990257e-01 2.6579475432057509e-01  0.0000000000000000e+00 3.2582139296000229e-01 3.2258440619519452e-01  0.0000000000000000e+00 3.4646449078829272e-01 2.6551122921872677e-01  0.0000000000000000e+00 3.1841901029643271e-01 2.6131561409069209e-01  0.0000000000000000e+00 3.3333456829844815e-01 3.1875376172265996e-01  0.0000000000000000e+00 3.1634794415483553e-01 2.7273927098237666e-01  0.0000000000000000e+00 2.9438553426536218e-01 3.2173723900226009e-01  0.0000000000000000e+00 3.4126186089985971e-01 2.5979064327309831e-01  0.0000000000000000e+00 3.3600699121993399e-01 2.5533810637924664e-01  0.0000000000000000e+00 2.9368983207584815e-01 3.2441630918696301e-01  0.0000000000000000e+00 3.4151150239188316e-01 3.1313425507366532e-01  0.0000000000000000e+00 3.1512266175705844e-01 2.7916332359572082e-01  0.0000000000000000e+00 3.4829588293133290e-01 3.0638321828064258e-01  0.0000000000000000e+00 2.9404382132039869e-01 3.2572355058203356e-01  0.0000000000000000e+00 3.3180092308040998e-01 2.5274503451819175e-01  0.0000000000000000e+00 3.1342967286442608e-01 2.8568889367194006e-01  0.0000000000000000e+00 3.5166906067490800e-01 3.0112813111147846e-01  0.0000000000000000e+00 2.9548097219308594e-01 3.2688458345230170e-01  0.0000000000000000e+00 3.0771492472485140e-01 3.2754488526366887e-01  0.0000000000000000e+00 3.5497223268484884e-01 2.8252165479218977e-01  0.0000000000000000e+00 3.2204464580029951e-01 2.5253558878456972e-01  0.0000000000000000e+00 3.0559169042589018e-01 3.0446568215774172e-01  0.0000000000000000e+00 2.9871962087116066e-01 3.1507859544482675e-01  0.0000000000000000e+00 3.2867864326392909e-01 2.5132322019808651e-01  0.0000000000000000e+00 3.1205178027077224e-01 2.9013963426364731e-01  0.0000000000000000e+00 3.5385757072161184e-01 2.9683743823171643e-01  0.0000000000000000e+00 2.9728517731898957e-01 3.2755963421536710e-01  0.0000000000000000e+00 3.1914851520938509e-01 2.5835224077870200e-01  0.0000000000000000e+00 3.5042573115993381e-01 2.7109224242582403e-01  0.0000000000000000e+00 3.0383654975326985e-01 3.2795759463700280e-01  0.0000000000000000e+00 3.1936428944303458e-01 3.2486877384650298e-01  0.0000000000000000e+00 3.5538708298373539e-01 2.8701185189141959e-01  0.0000000000000000e+00 3.2352353618430441e-01 2.5147135203633142e-01  0.0000000000000000e+00 3.0757640115242790e-01 3.0075361559882985e-01  0.0000000000000000e+00 2.9395321787467199e-01 3.2283600612497299e-01  0.0000000000000000e+00 3.0398467152844000e-01 3.0708842119043295e-01  0.0000000000000000e+00 3.2697144972966735e-01 2.5092531651848310e-01  0.0000000000000000e+00 3.2108918669541386e-01 2.5371031389432797e-01  0.0000000000000000e+00 3.1079372211958123e-01 2.9339361230315031e-01  0.0000000000000000e+00 3.1706285832333875e-01 2.6864589422458574e-01  0.0000000000000000e+00 3.1093438609785629e-01 3.2701811111767493e-01  0.0000000000000000e+00 2.9745956064584239e-01 3.1677751430530054e-01  0.0000000000000000e+00 3.3685573785183714e-01 3.1641409527465530e-01  0.0000000000000000e+00 3.3898540844964886e-01 2.5776492606256657e-01  0.0000000000000000e+00 3.4465417553256011e-01 3.1040010653657840e-01  0.0000000000000000e+00 3.5414134221134108e-01 2.7929895591851256e-01  0.0000000000000000e+00 3.0030193503326347e-01 3.1278922970321976e-01  0.0000000000