<?xml version="1.0"?>
<VTKFile type="UnstructuredGrid"  version="0.1"  >
<UnstructuredGrid>
<Piece  NumberOfPoints="4940" NumberOfCells="9650">
<Points>
<DataArray  type="Float64"  NumberOfComponents="3"  format="ascii">500 250 0  0 250 0  250 500 0  250 0 0  256.8885856082646 499.9050767557906 0  263.7719401218049 499.6203791065173 0  270.6448364229772 499.1461232471188 0  277.5020553257866 498.4826693209355 0  284.3383895508592 497.6305211460281 0  291.1486476865662 496.5903258312597 0  297.9276581259182 495.3628732847843 0  304.6702729675493 493.9490956196674 0  311.3713719748657 492.3500664368026 0  318.0258664141369 490.5670000199653 0  324.6287029687753 488.6012504015818 0  331.1748675330201 486.4543103455647 0  337.6593890460416 484.1278102064655 0  344.0773432429536 481.6235166997244 0  350.4238564271474 478.9433315480048 0  356.694109139292 476.0892900492477 0  362.88333985546 473.0635595140469 0  368.9868485575419 469.8684376402048 0  375.0000003153078 466.5063507640667 0  380.9182288257928 462.9798520074548 0  386.7370398729688 459.2916193419558 0  392.4520147244077 455.444453565817 0  398.0588135356345 451.4412761437442 0  403.5531785622926 447.285127045646 0  408.9309374414144 442.9791624087773 0  414.1880064015299 438.5266521049243 0  419.3203932989752 433.9309773069245 0  424.324200661095 429.1956279150535 0  429.1956286596235 424.3241998957182 0  433.9309780058756 419.3203925397119 0  438.5266527445345 414.1880056671062 0  442.9791630130591 408.9309367076756 0  447.2851276060475 403.5531778422888 0  451.4412766621026 398.0588128303826 0  455.4444540361634 392.4520140460735 0  459.2916197786263 386.7370392045948 0  462.9798524073514 380.9182281752347 0  466.5063511234856 374.9999996927758 0  469.8684379657123 368.9868479560565 0  473.0635598144817 362.8833392617846 0  476.0892903190255 356.6941085676214 0  478.9433317963513 350.4238558609745 0  481.6235169154735 344.0773427117675 0  484.12781039012 337.6593885555221 0  486.4543105028062 331.1748670749914 0  488.601250531677 324.6287025528375 0  490.5670001317469 318.0258660188321 0  492.3500665291326 311.3713716102628 0  493.949095695951 304.6702726271575 0  495.3628733416623 297.9276578347343 0  496.5903258712341 291.1486474470129 0  497.6305211749058 284.3383893426084 0  498.4826693388848 277.502055163614 0  499.1461232580606 270.6448362909296 0  499.6203791109319 263.7719400417897 0  499.9050767571306 256.8885855596534 0  499.9050767559877 243.1114143988867 0  499.6203791069493 236.2280598860241 0  499.1461232485393 229.3551635941651 0  498.4826693235677 222.4979446979962 0  497.6305211491849 215.6616104719064 0  496.5903258357701 208.8513523404629 0  495.3628732906988 202.0723419043604 0  493.9490956264813 195.3297270628552 0  492.3500664487791 188.6286280724281 0  490.5670000344809 181.9741336371959 0  488.6012504175981 175.3712970824318 0  486.4543103623226 168.8251325157939 0  484.1278102222298 162.3406109960628 0  481.6235167152198 155.9226567951971 0  478.9433315621651 149.5761436051346 0  476.0892900516498 143.3058908657982 0  473.063559513628 137.1166601437124 0  469.8684376406648 131.0131514433083 0  466.5063507675389 124.9999996907064 0  462.9798520124137 119.0817711822745 0  459.2916193464549 113.2629601339176 0  455.4444535642773 107.5479852733717 0  451.4412761528674 101.9411864767781 0  447.2851270583545 96.44682145403524 0  442.9791624165781 91.06906256805769 0  438.5266521117469 85.81199360630404 0  433.9309773156125 80.67960671046254 0  429.1956279150353 75.67579933888632 0  424.3241998888952 70.80437133373906 0  419.3203925223282 66.06902197812161 0  414.1880056411937 61.47334723289828 0  408.9309366751728 57.0208369601728 0  403.5531778009394 52.71487236176898 0  398.058812796452 48.55872331295853 0  392.4520140187753 44.55554594490843 0  386.7370391799677 40.70838020528396 0  380.9182281475119 37.02014757560744 0  374.9999996718656 33.49364886444181 0  368.9868479340393 30.13156202237255 0  362.8833392380029 26.93644017348339 0  356.6941085456942 23.91070967062674 0  350.4238558420009 21.0566681953261 0  344.0773426899492 18.37648307566465 0  337.6593885328982 15.87218960140942 0  331.1748670549786 13.54568949032341 0  324.6287025315056 11.39874946165088 0  318.0258660010876 9.432999863235466 0  311.3713716017894 7.649933468721599 0  304.6702726190621 6.050904302234756 0  297.9276578269805 4.637126656823085 0  291.148647441857 3.409674127905504 0  284.3383893425031 2.369478825079682 0  277.502055159398 1.517330660648639 0  270.6448362875833 0.853876741662134 0  263.7719400401456 0.3796208889774277 0  256.8885855592052 0.09492324285704967 0  243.1114143979462 0.09492324403817065 0  236.2280598850882 0.3796208931023841 0  229.3551635938215 0.8538767514891958 0  222.4979446968584 1.517330676558146 0  215.6616104703111 2.369478851036291 0  208.8513523382973 3.409674164591252 0  202.0723419066374 4.637126708856528 0  195.3297270659513 6.050904372824903 0  188.628628074828 7.649933550613184 0  181.9741336377093 9.432999965373938 0  175.3712970793675 11.39874958336037 0  168.8251325057572 13.54568964112298 0  162.340610986655 15.87218978129263 0  155.9226567874317 18.37648328793418 0  149.576143602509 21.05666843898663 0  143.3058908718157 23.91070994551046 0  137.1166601505524 26.93644048291054 0  131.0131514451933 30.13156235831508 0  124.9999996848412 33.49364923584736 0  119.0817711715717 37.0201479941652 0  113.2629601211624 40.70838066187849 0  107.5479852622251 44.55554644345162 0  101.9411864693332 48.55872385260452 0  96.44682143286516 52.71487295812284 0  91.06906254351222 57.02083760363669 0  85.81199358272519 61.4733479087879 0  80.67960667988106 66.06902271253972 0  75.67579930062769 70.80437212218331 0  70.80437129287643 75.67580015310926 0  66.06902193673014 80.67960752263491 0  61.47334718684866 85.81199441168215 0  57.02083692524275 91.0690633672404 0  52.71487232786438 96.44682224262129 0  48.55872328070024 101.941187247437 0  44.55554591578033 107.5479860232332 0  40.7083801742321 113.2629608675606 0  37.02014754791168 119.0817718975441 0  33.49364883372994 125.000000381329 0  30.13156199866361 131.0131521097709 0  26.9364401549829 137.1166607985551 0  23.91070965524918 143.3058914868915 0  21.05666818346614 149.576144185037 0  18.37648306853811 155.9226573275967 0  15.8721895918909 162.3406114925245 0  13.54568948170046 168.8251329701392 0  11.39874945301878 175.3712974960928 0  9.432999857087736 181.9741340206533 0  7.649933466342702 188.6286284076045 0  6.050904301250966 195.3297273853278 0  4.637126656808988 202.0723421730917 0  3.409674127767772 208.8513525589684 0  2.369478824521138 215.6616106615248 0  1.517330660909465 222.4979448382452 0  0.8538767414496533 229.355163714981 0  0.3796208887135322 236.2280599646376 0  0.09492324266324204 243.1114144478261 0  0.0949232442452228 256.8885856095658 0  0.3796208935834784 263.7719401236316 0  0.8538767530323526 270.6448364248016 0  1.517330679476544 277.5020553295092 0  2.369478854618649 284.3383895555228 0  3.409674170191892 291.1486476952655 0  4.6371267162381 297.9276581311522 0  6.050904381420935 304.6702729724059 0  7.649933562385399 311.3713719716595 0  9.43299997979841 318.0258664133013 0  11.3987495994252 324.6287029719946 0  13.54568965885832 331.174867545904 0  15.87218979367188 337.6593890464085 0  18.37648329843151 344.0773432384132 0  21.05666844777872 350.423856417535 0  23.91070995156048 356.6941091410045 0  26.93644048988043 362.8833398632205 0  30.13156235982007 368.9868485575877 0  33.49364924138357 375.0000003247478 0  37.0201480006036 380.9182288389023 0  40.70838066758398 386.7370398875706 0  44.55554644477201 392.4520147396792 0  48.55872386086904 398.0588135419111 0  52.71487295981296 403.5531785693063 0  57.02083760525949 408.9309374584583 0  61.47334790862246 414.1880064170849 0  66.06902271205095 419.320393319588 0  70.80437211216579 424.3242006890749 0  75.67580013809859 429.195628692521 0  80.6796075127923 433.930978054209 0  85.81199439754931 438.5266528008431 0  91.06906334717917 442.9791630582355 0  96.44682221438322 447.2851276501571 0  101.9411872243843 451.441276702356 0  107.5479859945825 455.4444540643537 0  113.2629608446994 459.2916198108319 0  119.0817718768376 462.9798524393601 0  125.0000003647644 466.5063511567065 0  131.0131521012763 469.8684379967393 0  137.1166607840049 473.0635598376539 0  143.3058914748804 476.0892903390826 0  149.5761441732679 478.9433318113714 0  155.9226573130112 481.6235169255377 0  162.3406114779862 484.1278104026658 0  168.8251329570439 486.4543105138039 0  175.3712974805475 488.601250542119 0  181.9741340135204 490.5670001408953 0  188.6286284005059 492.3500665318597 0  195.3297273788229 493.9490956972913 0  202.0723421640089 495.3628733414168 0  208.8513525529672 496.5903258712308 0  215.6616106544547 497.6305211744985 0  222.4979448327038 498.4826693384772 0  229.3551637102845 499.1461232581612 0  236.2280599621369 499.6203791111485 0  243.1114144470173 499.9050767573145 0  155.2373389820306 474.8197567317462 0  25.36256300907667 153.9152755065208 0  432.3709625126712 412.6214396304305 0  6.013151705810699 246.637913163471 0  246.6379131630491 493.986848294322 0  338.6995838441862 22.68244767887072 0  477.3175523131281 338.6995838660569 0  493.9868482700757 246.6379131399102 0  246.6201155078769 6.218451882810491 0  417.6179310263282 72.7156044707053 0  102.2232990934413 445.0100869616822 0  63.66330858966404 92.20354579482142 0  391.3105220491464 50.73522820883105 0  72.79295043967942 418.0702734974704 0  448.290574428537 108.25674339002 0  402.4604651193511 440.7462829841712 0  97.55317348421397 59.11376320116034 0  136.7376477664901 33.58246472647134 0  363.3288394375288 465.6947312928271 0  44.0678766556007 381.0860953771871 0  469.6905266180034 142.3890690100806 0  22.68244791668644 338.6995843487432 0  338.699584349159 477.317552078365 0  173.389488083762 18.6681884918202 0  483.4809734778481 179.7121987795732 0  13.50237455842738 306.4709525540879 0  305.9825168523021 487.24416992
[...]
<PointData  Vectors="f_12"> 
<DataArray  type="Float64"  Name="f_12"  NumberOfComponents="3" format="ascii">0.0000000000000000e+00 1.7878146696489194e-02 4.4462145748824128e-01  0.0000000000000000e+00 1.0381351577604153e-01 9.6303473793799510e-01  0.0000000000000000e+00 4.6143375478879131e-02 2.8586188020180477e-02  0.0000000000000000e+00 6.3859372028675199e-01 6.2406387043907530e-01  0.0000000000000000e+00 4.6459936690094170e-02 2.8340972137707057e-02  0.0000000000000000e+00 4.6630008676484071e-02 2.8213037484372313e-02  0.0000000000000000e+00 4.6743346841565267e-02 2.8125018745279062e-02  0.0000000000000000e+00 4.6733881603522515e-02 2.8136366958652584e-02  0.0000000000000000e+00 4.6629024368933049e-02 2.8216505744367140e-02  0.0000000000000000e+00 4.6424309190521353e-02 2.8371176164272094e-02  0.0000000000000000e+00 4.6128554923716120e-02 2.8598041514219304e-02  0.0000000000000000e+00 4.5757619209893116e-02 2.8888906401973124e-02  0.0000000000000000e+00 4.5307927278145463e-02 2.9249029261217183e-02  0.0000000000000000e+00 4.4777368048495775e-02 2.9685591299984049e-02  0.0000000000000000e+00 4.4123834799237281e-02 3.0246606370581651e-02  0.0000000000000000e+00 4.3512390127321131e-02 3.0784081753884952e-02  0.0000000000000000e+00 4.2707185968656955e-02 3.1529769100336988e-02  0.0000000000000000e+00 4.1945387740078846e-02 3.2271910497847646e-02  0.0000000000000000e+00 4.1123253384347178e-02 3.3117251341367407e-02  0.0000000000000000e+00 4.0262712229154785e-02 3.4044788721851633e-02  0.0000000000000000e+00 3.9386416509810555e-02 3.5042781816971812e-02  0.0000000000000000e+00 3.8464373238550988e-02 3.6182365042659856e-02  0.0000000000000000e+00 3.7522603635312041e-02 3.7428587831865236e-02  0.0000000000000000e+00 3.6596768513693423e-02 3.8732433413256759e-02  0.0000000000000000e+00 3.5646443582137165e-02 4.0172086230167235e-02  0.0000000000000000e+00 3.4660561850251015e-02 4.1792137595949991e-02  0.0000000000000000e+00 3.3633392094358852e-02 4.3615163109218348e-02  0.0000000000000000e+00 3.2642556743312005e-02 4.5523013633630836e-02  0.0000000000000000e+00 3.1654754583497619e-02 4.7598276329428285e-02  0.0000000000000000e+00 3.0638988578214451e-02 4.9938579970364751e-02  0.0000000000000000e+00 2.9671333229463040e-02 5.2404319158385261e-02  0.0000000000000000e+00 2.8714119689245553e-02 5.5103747584592619e-02  0.0000000000000000e+00 2.7774674212159903e-02 5.8051681653387088e-02  0.0000000000000000e+00 2.6858763037641047e-02 6.1226970692262558e-02  0.0000000000000000e+00 2.5930461490166121e-02 6.4812390607698861e-02  0.0000000000000000e+00 2.5028123564541913e-02 6.8725015339434592e-02  0.0000000000000000e+00 2.4159769826389687e-02 7.2915587404738968e-02  0.0000000000000000e+00 2.3310270894831276e-02 7.7555908456602957e-02  0.0000000000000000e+00 2.2493206096503710e-02 8.2678004589494689e-02  0.0000000000000000e+00 2.1725325326976852e-02 8.8164345579936312e-02  0.0000000000000000e+00 2.1000362753412157e-02 9.4077510651197835e-02  0.0000000000000000e+00 2.0292633988174394e-02 1.0070153056135049e-01  0.0000000000000000e+00 1.9603067859703945e-02 1.0808690458589489e-01  0.0000000000000000e+00 1.8965420609463893e-02 1.1607350696568361e-01  0.0000000000000000e+00 1.8372861835860968e-02 1.2480799744951043e-01  0.0000000000000000e+00 1.7827273060355201e-02 1.3433789647031233e-01  0.0000000000000000e+00 1.7328630623033227e-02 1.4472616271876881e-01  0.0000000000000000e+00 1.6882423420640488e-02 1.5606333292107533e-01  0.0000000000000000e+00 1.6469314721764380e-02 1.6880824042379686e-01  0.0000000000000000e+00 1.6111372967283544e-02 1.8263720680347426e-01  0.0000000000000000e+00 1.5819616769200604e-02 1.9764472538838060e-01  0.0000000000000000e+00 1.5588347662022455e-02 2.1394897233963284e-01  0.0000000000000000e+00 1.5428876932729386e-02 2.3174820691102363e-01  0.0000000000000000e+00 1.5336168804182653e-02 2.5146210171423428e-01  0.0000000000000000e+00 1.5321525639392630e-02 2.7298452460038575e-01  0.0000000000000000e+00 1.5402614699434082e-02 2.9619444377428122e-01  0.0000000000000000e+00 1.5587326589290849e-02 3.2139102728808905e-01  0.0000000000000000e+00 1.5902453214137489e-02 3.4865324523111568e-01  0.0000000000000000e+00 1.6347702353388515e-02 3.7819573910121823e-01  0.0000000000000000e+00 1.6928843022364852e-02 4.0909024636754598e-01  0.0000000000000000e+00 1.8916946997421847e-02 4.8129238213405717e-01  0.0000000000000000e+00 2.0348538788214982e-02 5.2000029423353278e-01  0.0000000000000000e+00 2.2155877827522534e-02 5.6013618780822705e-01  0.0000000000000000e+00 2.4513512612188992e-02 6.0294403132671726e-01  0.0000000000000000e+00 2.7538583382192394e-02 6.4706642732151332e-01  0.0000000000000000e+00 3.1399653018930850e-02 6.9200495795945349e-01  0.0000000000000000e+00 3.6267918793883122e-02 7.3634639924885703e-01  0.0000000000000000e+00 4.2339669841294850e-02 7.7946099287377302e-01  0.0000000000000000e+00 4.9842131066920370e-02 8.2071596164453942e-01  0.0000000000000000e+00 5.8929624928349127e-02 8.5929552345900362e-01  0.0000000000000000e+00 6.9754296052447817e-02 8.9440289057753097e-01  0.0000000000000000e+00 8.2127258464720618e-02 9.2511638394712281e-01  0.0000000000000000e+00 9.6078109147457097e-02 9.5137248122162543e-01  0.0000000000000000e+00 1.1151765649324898e-01 9.7300303576646197e-01  0.0000000000000000e+00 1.2838223498203333e-01 9.9013106427602782e-01  0.0000000000000000e+00 1.4645570775337022e-01 1.0028146768865021e+00  0.0000000000000000e+00 1.6547336270328791e-01 1.0111957466166834e+00  0.0000000000000000e+00 1.8510695257042056e-01 1.0156030350813952e+00  0.0000000000000000e+00 2.0518584830891504e-01 1.0164577108846042e+00  0.0000000000000000e+00 2.2564568350011499e-01 1.0141578015897734e+00  0.0000000000000000e+00 2.4649844992035205e-01 1.0089897027049211e+00  0.0000000000000000e+00 2.6728809147273369e-01 1.0013534823654688e+00  0.0000000000000000e+00 2.8799386132980809e-01 9.9162864144714380e-01  0.0000000000000000e+00 3.0822247223531574e-01 9.8026307841838878e-01  0.0000000000000000e+00 3.2798693582560151e-01 9.6755769113502743e-01  0.0000000000000000e+00 3.4729539991563241e-01 9.5374770413518950e-01  0.0000000000000000e+00 3.6619117017415870e-01 9.3899310255234592e-01  0.0000000000000000e+00 3.8465728955394651e-01 9.2347268829547968e-01  0.0000000000000000e+00 4.0255355020440847e-01 9.0744522402189520e-01  0.0000000000000000e+00 4.1975903488658667e-01 8.9118691059463051e-01  0.0000000000000000e+00 4.3613146107248324e-01 8.7496618201347576e-01  0.0000000000000000e+00 4.5168331097244530e-01 8.5891738682916252e-01  0.0000000000000000e+00 4.6656632793618030e-01 8.4299391264490975e-01  0.0000000000000000e+00 4.8069608306054740e-01 8.2738997448135942e-01  0.0000000000000000e+00 4.9407015435503887e-01 8.1219053300477284e-01  0.0000000000000000e+00 5.0708495726925074e-01 7.9700617531396178e-01  0.0000000000000000e+00 5.1948907849965376e-01 7.8219849742497283e-01  0.0000000000000000e+00 5.3093924682350147e-01 7.6823105965155647e-01  0.0000000000000000e+00 5.4187107833333104e-01 7.5463211987743195e-01  0.0000000000000000e+00 5.5222062161160856e-01 7.4154312970750458e-01  0.0000000000000000e+00 5.6150907334963573e-01 7.2959916160204541e-01  0.0000000000000000e+00 5.7024208400966026e-01 7.1821789847631035e-01  0.0000000000000000e+00 5.7833192188098681e-01 7.0753552489910654e-01  0.0000000000000000e+00 5.8591418197687750e-01 6.9741290774204134e-01  0.0000000000000000e+00 5.9294578276526033e-01 6.8792327562767264e-01  0.0000000000000000e+00 5.9949084057521096e-01 6.7900644313749292e-01  0.0000000000000000e+00 6.0550474477701166e-01 6.7074131228602318e-01  0.0000000000000000e+00 6.1097553388345516e-01 6.6316369890518845e-01  0.0000000000000000e+00 6.1601748563978587e-01 6.5613040313918569e-01  0.0000000000000000e+00 6.2061869094086475e-01 6.4966998865055448e-01  0.0000000000000000e+00 6.2467032411450796e-01 6.4395089050615784e-01  0.0000000000000000e+00 6.2816034882547389e-01 6.3899784324243170e-01  0.0000000000000000e+00 6.3110017083051118e-01 6.3481021837560825e-01  0.0000000000000000e+00 6.3368829775280044e-01 6.3111074877221973e-01  0.0000000000000000e+00 6.3576021217011980e-01 6.2813962182009531e-01  0.0000000000000000e+00 6.3742909855989804e-01 6.2574183061114508e-01  0.0000000000000000e+00 6.3910756778488875e-01 6.2332251635070368e-01  0.0000000000000000e+00 6.4026359416919831e-01 6.2165780074758459e-01  0.0000000000000000e+00 6.3970719203416448e-01 6.2245798223923277e-01  0.0000000000000000e+00 6.3924227659491439e-01 6.2312835616413653e-01  0.0000000000000000e+00 6.3843870321973406e-01 6.2428639909025518e-01  0.0000000000000000e+00 6.3715135846464699e-01 6.2614035618305364e-01  0.0000000000000000e+00 6.3538251858975803e-01 6.2868136599966373e-01  0.0000000000000000e+00 6.3331755121280653e-01 6.3164106416240617e-01  0.0000000000000000e+00 6.3080579065899167e-01 6.3522936812540765e-01  0.0000000000000000e+00 6.2842576854847532e-01 6.3862337803027502e-01  0.0000000000000000e+00 6.2484787596112257e-01 6.4369939575259327e-01  0.0000000000000000e+00 6.2110559091359585e-01 6.4898286078670697e-01  0.0000000000000000e+00 6.1701539952905671e-01 6.5473259467602707e-01  0.0000000000000000e+00 6.1274975904180540e-01 6.6069338331224670e-01  0.0000000000000000e+00 6.0801400165890396e-01 6.6727069444422948e-01  0.0000000000000000e+00 6.0270662322818713e-01 6.7459399461764913e-01  0.0000000000000000e+00 5.9719472899477344e-01 6.8214293473776988e-01  0.0000000000000000e+00 5.9136339566221297e-01 6.9006598361449778e-01  0.0000000000000000e+00 5.8520723191005652e-01 6.9835895404234960e-01  0.0000000000000000e+00 5.7868709591942125e-01 7.0706455708801708e-01  0.0000000000000000e+00 5.7171941181957753e-01 7.1627340638606229e-01  0.0000000000000000e+00 5.6432822345275646e-01 7.2593964625015872e-01  0.0000000000000000e+00 5.5661881475015818e-01 7.3590496475965239e-01  0.0000000000000000e+00 5.4851831293918119e-01 7.4624710669721150e-01  0.0000000000000000e+00 5.3996023038900309e-01 7.5702767199039889e-01  0.0000000000000000e+00 5.3095870341292373e-01 7.6820299888997268e-01  0.0000000000000000e+00 5.2150650146258781e-01 7.7975370463676918e-01  0.0000000000000000e+00 5.1166022853711768e-01 7.9158299568443091e-01  0.0000000000000000e+00 5.0143709822214255e-01 8.0364050694099198e-01  0.0000000000000000e+00 4.9089177653605415e-01 8.1583488304197693e-01  0.0000000000000000e+00 4.8005273403534354e-01 8.2810547755071906e-01  0.0000000000000000e+00 4.6897747764297554e-01 8.4036103337989476e-01  0.0000000000000000e+00 4.5757674865484488e-01 8.5267220371510433e-01  0.0000000000000000e+00 4.4579069610976563e-01 8.6506230423072983e-01  0.0000000000000000e+00 4.3344406511828720e-01 8.7766927314449794e-01  0.0000000000000000e+00 4.2063973697663720e-01 8.9032116074405121e-01  0.0000000000000000e+00 4.0738150310340954e-01 9.0295814914589057e-01  0.0000000000000000e+00 3.9375161107909740e-01 9.1543620225340361e-01  0.0000000000000000e+00 3.7980973629153736e-01 9.2763532532226889e-01  0.0000000000000000e+00 3.6567102046321864e-01 9.3941066439210608e-01  0.0000000000000000e+00 3.5105488160543308e-01 9.5088567518844602e-01  0.0000000000000000e+00 3.3629291249407933e-01 9.6176430381518130e-01  0.0000000000000000e+00 3.2153422892783773e-01 9.7186173160187594e-01  0.0000000000000000e+00 3.0628102847466421e-01 9.8140695069725814e-01  0.0000000000000000e+00 2.9053943374720770e-01 9.9028064493951062e-01  0.0000000000000000e+00 2.7444062803808728e-01 9.9820576901326019e-01  0.0000000000000000e+00 2.5850485165123954e-01 1.0048496890957070e+00  0.0000000000000000e+00 2.4193979037491906e-01 1.0103166215972617e+00  0.0000000000000000e+00 2.2572815446941757e-01 1.0141130080441143e+00  0.0000000000000000e+00 2.0957590144263316e-01 1.0161739044691553e+00  0.0000000000000000e+00 1.9373131486528994e-01 1.0163714426279493e+00  0.0000000000000000e+00 1.7782252560669978e-01 1.0143771544946447e+00  0.0000000000000000e+00 1.6199306826746321e-01 1.0099760489820953e+00  0.0000000000000000e+00 1.4650087881463944e-01 1.0028255299839064e+00  0.0000000000000000e+00 1.3154938251213660e-01 9.9272304198715011e-01  0.0000000000000000e+00 1.1727936300612088e-01 9.7950592733760533e-01  0.0000000000000000e+00 9.1265216524871767e-02 9.4315950935235393e-01  0.0000000000000000e+00 7.9694237687914504e-02 9.1975193724885174e-01  0.0000000000000000e+00 6.9129520847652504e-02 8.9271419386038708e-01  0.0000000000000000e+00 5.9669836613514618e-02 8.6204225093777886e-01  0.0000000000000000e+00 5.1398267185334981e-02 8.2818090463221794e-01  0.0000000000000000e+00 4.4335837093013870e-02 7.9164032083863378e-01  0.0000000000000000e+00 3.8412159232410668e-02 7.5302079599683513e-01  0.0000000000000000e+00 3.3501791326565937e-02 7.1270676279431444e-01  0.0000000000000000e+00 2.9468562836504394e-02 6.7116016874208084e-01  0.0000000000000000e+00 2.6191368340710387e-02 6.2904563287249760e-01  0.0000000000000000e+00 2.3567639950123721e-02 5.8728643082644483e-01  0.0000000000000000e+00 2.1482914851203353e-02 5.4667844563038037e-01  0.0000000000000000e+00 1.9837995317339565e-02 5.0758438313145582e-01  0.0000000000000000e+00 1.8537292930743958e-02 4.6987568495672905e-01  0.0000000000000000e+00 1.7519444588597333e-02 4.3387284657721481e-01  0.0000000000000000e+00 1.6743272033749357e-02 3.9968102091236851e-01  0.0000000000000000e+00 1.6163929056367522e-02 3.6761923844050998e-01  0.0000000000000000e+00 1.5744766225857881e-02 3.3793328582825377e-01  0.0000000000000000e+00 1.5483975872327282e-02 3.1016807763224397e-01  0.0000000000000000e+00 1.5334228323504210e-02 2.8427712624955354e-01  0.0000000000000000e+00 1.5309127903973440e-02 2.6020997828100406e-01  0.0000000000000000e+00 1.5379531794034066e-02 2.3812572457387321e-01  0.0000000000000000e+00 1.5535151502804894e-02 2.1795239590942411e-01  0.0000000000000000e+00 1.5780457851252924e-02 1.9944216783267940e-01  0.0000000000000000e+00 1.6108695366605582e-02 1.8242816545958318e-01  0.0000000000000000e+00 1.6520608797079457e-02 1.6680230108894845e-01  0.0000000000000000e+00 1.7007150240129727e-02 1.5253472318710906e-01  0.0000000000000000e+00 1.7551504886447175e-02 1.3972779232677493e-01  0.0000000000000000e+00 1.8172040176246806e-02 1.2806816894402950e-01  0.0000000000000000e+00 1.8859327653035860e-02 1.1747818048846700e-01  0.0000000000000000e+00 1.9623093428702974e-02 1.0784804022757222e-01  0.0000000000000000e+00 2.0449947814353966e-02 9.9124440394190494e-02  0.0000000000000000e+00 2.1329348821695789e-02 9.1287824926179442e-02  0.0000000000000000e+00 2.2267140081623546e-02 8.4223796817373631e-02  0.0000000000000000e+00 2.3273297358805622e-02 7.7806020781091237e-02  0.0000000000000000e+00 2.4329552772663236e-02 7.2066414394243508e-02  0.0000000000000000e+00 2.5437123416176120e-02 6.6905234225979340e-02  0.0000000000000000e+00 2.6599399845864638e-02 6.2197880336742464e-02  0.0000000000000000e+00 2.7779394126116845e-02 5.8036430985185558e-02  0.0000000000000000e+00 2.8987190698759997e-02 5.4333283114696145e-02  0.0000000000000000e+00 3.0233892498034817e-02 5.0975828410771161e-02  0.0000000000000000e+00 3.1502294316887260e-02 4.7962086422783323e-02  0.0000000000000000e+00 3.2803298232758175e-02 4.5235800855502044e-02  0.0000000000000000e+00 3.4065002257212623e-02 4.2845337078987827e-02  0.0000000000000000e+00 3.5338134130456673e-02 4.0691316984129901e-02  0.0000000000000000e+00 3.6570878813336045e-02 3.8794953430004622e-02  0.0000000000000000e+00 3.7758965470833503e-02 3.7115038176667114e-02  0.0000000000000000e+00 3.8915120352036939e-02 3.5618060674779337e-02  0.0000000000000000e+00 4.0019686891117186e-02 3.4327811991745956e-02  0.0000000000000000e+00 4.1066629362988959e-02 3.3184316838477897e-02  0.0000000000000000e+00 4.2078241402416075e-02 3.2146323311882156e-02  0.0000000000000000e+00 4.2997105572231520e-02 3.1265417814291908e-02  0.0000000000000000e+00 4.3820402082607235e-02 3.0523905166758750e-02  0.0000000000000000e+00 4.4551761750334588e-02 2.9886258240052040e-02  0.0000000000000000e+00 4.5184104350299063e-02 2.9356700061319276e-02  0.0000000000000000e+00 4.5695473871200022e-02 2.8943435306692803e-02  0.0000000000000000e+00 3.1900297229192930e-02 4.7103874829326937e-02  0.0000000000000000e+00 3.2937951468750015e-01 9.6658536695785213e-01  0.0000000000000000e+00 2.6137979075244806e-02 6.3983853838710386e-02  0.0000000000000000e+00 1.0929496124217729e-01 9.7032218184456298e-01  0.0000000000000000e+00 4.5400537039512745e-02 2.9190642915908560e-02  0.0000000000000000e+00 5.7975954980975275e-01 7.0563578890323797e-01  0.0000000000000000e+00 1.7037624357250817e-02 1.5194261166702150e-01  0.0000000000000000e+00 1.8381013631021115e-02 4.6462352039564253e-01  0.0000000000000000e+00 6.3631913770062332e-01 6.2733487959998402e-01  0.0000000000000000e+00 4.0972723063090399e-01 9.0076294324107942e-01  0.0000000000000000e+00 2.1675564576432750e-02 8.8556510584910764e-02  0.0000000000000000e+00 4.7218418546788343e-01 8.3683784362825353e-01  0.0000000000000000e+00 4.8703972732955542e-01 8.2022522596371539e-01  0.0000000000000000e+00 1.7255831047649755e-02 1.4635483371001154e-01  0.0000000000000000e+00 2.7705742902195962e-01 9.9702386708163715e-01  0.0000000000000000e+00 3.1900014901328683e-02 4.7078073949910759e-02  0.0000000000000000e+00 5.4237896669930807e-01 7.5399548680725159e-01  0.0000000000000000e+00 5.9198064308987819e-01 6.8922862161945719e-01  0.0000000000000000e+00 3.8461450551041505e-02 3.6193351396128462e-02  0.0000000000000000e+00 1.5310360803163170e-02 2.7102836337902486e-01  0.0000000000000000e+00 1.5621861428640380e-01 1.0076619574826577e+00  0.0000000000000000e+00 1.9131705730644086e-02 4.8814709897247271e-01  0.0000000000000000e+00 4.1894447388553309e-02 3.2333590042915458e-02  0.0000000000000000e+00 6.1989374515791440e-01 6.5069353098467142e-01  0.0000000000000000e+00 6.5537881726393382e-02 8.8186454360125421e-01  0.0000000000000000e+00 3.1170118786543792e-02 6.8982169473363331e-01  0.0000000000000000e+00 4.5020529310895001e-02 2.9500443633948392e-02  0.0000000000000000e+00 3.9075710736269739e-02 3.5439219450164178e-02  0.0000000000000000e+00 2.3196726521743882e-01 1.0128189123831988e+00  0.0000000000000000e+00 6.1574937159907273e-01 6.5650591753396892e-01  0.0000000000000000e+00 1.5363225522065409e-02 2.4349354437180395e-01  0.0000000000000000e+00 2.1368308324741438e-02 9.1009458804677160e-02  0.0000000000000000e+00 6.3388224383207636e-01 6.3083120744865195e-01  0.0000000000000000e+00 3.4229808620809467e-02 7.1904735562464561e-01  0.0000000000000000e+00 5.4902990859717581e-02 8.4349865097460952e-01  0.0000000000000000e+00 4.6161408425266122e-02 2.8588004790834582e-02  0.0000000000000000e+00 5.3416426528602834e-01 7.6423883419389138e-01  0.0000000000000000e+00 3.9843962864021470e-01 9.1119987243303724e-01  0.0000000000000000e+00 4.2961060235050731e-02 3.1316097153784805e-02  0.0000000000000000e+00 2.6967143284097671e-02 6.0829325748497858e-02  0.0000000000000000e+00 1.6638205768997805e-01 1.0114971390262053e+00  0.0000000000000000e+00 6.2960363285923993e-01 6.3694383737803717e-01  0.0000000000000000e+00 1.5722975324232197e-02 3.3413602036653678e-01  0.0000000000000000e+00 3.4668622630749275e-02 4.1793251441667831e-02  0.0000000000000000e+00 1.5917658044449317e-02 1.9207241257262328e-01  0.0000000000000000e+00 6.3730098294549420e-01 6.2592218644657782e-01  0.0000000000000000e+00 6.0007979247411980e-01 6.7819789557288301e-01  0.0000000000000000e+00 2.3425637854731916e-02 5.8446250968159918e-01  0.0000000000000000e+00 3.5616363434266191e-01 9.4695318498468806e-01  0.0000000000000000e+00 3.5635417339661420e-02 4.0230362635912724e-02  0.0000000000000000e+00 2.3507445221747608e-02 7.6426583855803254e-02  0.0000000000000000e+00 1.5933822656637509e-02 1.9070254164396513e-01  0.0000000000000000e+00 5.6557821768084948e-01 7.2430991286028912e-01  0.0000000000000000e+00 1.5913029519523083e-02 3.5077811091481115e-01  0.0000000000000000e+00 2.8043247211674777e-01 9.9537252456643899e-01  0.0000000000000000e+00 1.9174663826935980e-02 1.1331320002467798e-01  0.0000000000