<?xml version="1.0"?>
<VTKFile type="UnstructuredGrid"  version="0.1"  >
<UnstructuredGrid>
<Piece  NumberOfPoints="4940" NumberOfCells="9650">
<Points>
<DataArray  type="Float64"  NumberOfComponents="3"  format="ascii">500 250 0  0 250 0  250 500 0  250 0 0  256.8885856082646 499.9050767557906 0  263.7719401218049 499.6203791065173 0  270.6448364229772 499.1461232471188 0  277.5020553257866 498.4826693209355 0  284.3383895508592 497.6305211460281 0  291.1486476865662 496.5903258312597 0  297.9276581259182 495.3628732847843 0  304.6702729675493 493.9490956196674 0  311.3713719748657 492.3500664368026 0  318.0258664141369 490.5670000199653 0  324.6287029687753 488.6012504015818 0  331.1748675330201 486.4543103455647 0  337.6593890460416 484.1278102064655 0  344.0773432429536 481.6235166997244 0  350.4238564271474 478.9433315480048 0  356.694109139292 476.0892900492477 0  362.88333985546 473.0635595140469 0  368.9868485575419 469.8684376402048 0  375.0000003153078 466.5063507640667 0  380.9182288257928 462.9798520074548 0  386.7370398729688 459.2916193419558 0  392.4520147244077 455.444453565817 0  398.0588135356345 451.4412761437442 0  403.5531785622926 447.285127045646 0  408.9309374414144 442.9791624087773 0  414.1880064015299 438.5266521049243 0  419.3203932989752 433.9309773069245 0  424.324200661095 429.1956279150535 0  429.1956286596235 424.3241998957182 0  433.9309780058756 419.3203925397119 0  438.5266527445345 414.1880056671062 0  442.9791630130591 408.9309367076756 0  447.2851276060475 403.5531778422888 0  451.4412766621026 398.0588128303826 0  455.4444540361634 392.4520140460735 0  459.2916197786263 386.7370392045948 0  462.9798524073514 380.9182281752347 0  466.5063511234856 374.9999996927758 0  469.8684379657123 368.9868479560565 0  473.0635598144817 362.8833392617846 0  476.0892903190255 356.6941085676214 0  478.9433317963513 350.4238558609745 0  481.6235169154735 344.0773427117675 0  484.12781039012 337.6593885555221 0  486.4543105028062 331.1748670749914 0  488.601250531677 324.6287025528375 0  490.5670001317469 318.0258660188321 0  492.3500665291326 311.3713716102628 0  493.949095695951 304.6702726271575 0  495.3628733416623 297.9276578347343 0  496.5903258712341 291.1486474470129 0  497.6305211749058 284.3383893426084 0  498.4826693388848 277.502055163614 0  499.1461232580606 270.6448362909296 0  499.6203791109319 263.7719400417897 0  499.9050767571306 256.8885855596534 0  499.9050767559877 243.1114143988867 0  499.6203791069493 236.2280598860241 0  499.1461232485393 229.3551635941651 0  498.4826693235677 222.4979446979962 0  497.6305211491849 215.6616104719064 0  496.5903258357701 208.8513523404629 0  495.3628732906988 202.0723419043604 0  493.9490956264813 195.3297270628552 0  492.3500664487791 188.6286280724281 0  490.5670000344809 181.9741336371959 0  488.6012504175981 175.3712970824318 0  486.4543103623226 168.8251325157939 0  484.1278102222298 162.3406109960628 0  481.6235167152198 155.9226567951971 0  478.9433315621651 149.5761436051346 0  476.0892900516498 143.3058908657982 0  473.063559513628 137.1166601437124 0  469.8684376406648 131.0131514433083 0  466.5063507675389 124.9999996907064 0  462.9798520124137 119.0817711822745 0  459.2916193464549 113.2629601339176 0  455.4444535642773 107.5479852733717 0  451.4412761528674 101.9411864767781 0  447.2851270583545 96.44682145403524 0  442.9791624165781 91.06906256805769 0  438.5266521117469 85.81199360630404 0  433.9309773156125 80.67960671046254 0  429.1956279150353 75.67579933888632 0  424.3241998888952 70.80437133373906 0  419.3203925223282 66.06902197812161 0  414.1880056411937 61.47334723289828 0  408.9309366751728 57.0208369601728 0  403.5531778009394 52.71487236176898 0  398.058812796452 48.55872331295853 0  392.4520140187753 44.55554594490843 0  386.7370391799677 40.70838020528396 0  380.9182281475119 37.02014757560744 0  374.9999996718656 33.49364886444181 0  368.9868479340393 30.13156202237255 0  362.8833392380029 26.93644017348339 0  356.6941085456942 23.91070967062674 0  350.4238558420009 21.0566681953261 0  344.0773426899492 18.37648307566465 0  337.6593885328982 15.87218960140942 0  331.1748670549786 13.54568949032341 0  324.6287025315056 11.39874946165088 0  318.0258660010876 9.432999863235466 0  311.3713716017894 7.649933468721599 0  304.6702726190621 6.050904302234756 0  297.9276578269805 4.637126656823085 0  291.148647441857 3.409674127905504 0  284.3383893425031 2.369478825079682 0  277.502055159398 1.517330660648639 0  270.6448362875833 0.853876741662134 0  263.7719400401456 0.3796208889774277 0  256.8885855592052 0.09492324285704967 0  243.1114143979462 0.09492324403817065 0  236.2280598850882 0.3796208931023841 0  229.3551635938215 0.8538767514891958 0  222.4979446968584 1.517330676558146 0  215.6616104703111 2.369478851036291 0  208.8513523382973 3.409674164591252 0  202.0723419066374 4.637126708856528 0  195.3297270659513 6.050904372824903 0  188.628628074828 7.649933550613184 0  181.9741336377093 9.432999965373938 0  175.3712970793675 11.39874958336037 0  168.8251325057572 13.54568964112298 0  162.340610986655 15.87218978129263 0  155.9226567874317 18.37648328793418 0  149.576143602509 21.05666843898663 0  143.3058908718157 23.91070994551046 0  137.1166601505524 26.93644048291054 0  131.0131514451933 30.13156235831508 0  124.9999996848412 33.49364923584736 0  119.0817711715717 37.0201479941652 0  113.2629601211624 40.70838066187849 0  107.5479852622251 44.55554644345162 0  101.9411864693332 48.55872385260452 0  96.44682143286516 52.71487295812284 0  91.06906254351222 57.02083760363669 0  85.81199358272519 61.4733479087879 0  80.67960667988106 66.06902271253972 0  75.67579930062769 70.80437212218331 0  70.80437129287643 75.67580015310926 0  66.06902193673014 80.67960752263491 0  61.47334718684866 85.81199441168215 0  57.02083692524275 91.0690633672404 0  52.71487232786438 96.44682224262129 0  48.55872328070024 101.941187247437 0  44.55554591578033 107.5479860232332 0  40.7083801742321 113.2629608675606 0  37.02014754791168 119.0817718975441 0  33.49364883372994 125.000000381329 0  30.13156199866361 131.0131521097709 0  26.9364401549829 137.1166607985551 0  23.91070965524918 143.3058914868915 0  21.05666818346614 149.576144185037 0  18.37648306853811 155.9226573275967 0  15.8721895918909 162.3406114925245 0  13.54568948170046 168.8251329701392 0  11.39874945301878 175.3712974960928 0  9.432999857087736 181.9741340206533 0  7.649933466342702 188.6286284076045 0  6.050904301250966 195.3297273853278 0  4.637126656808988 202.0723421730917 0  3.409674127767772 208.8513525589684 0  2.369478824521138 215.6616106615248 0  1.517330660909465 222.4979448382452 0  0.8538767414496533 229.355163714981 0  0.3796208887135322 236.2280599646376 0  0.09492324266324204 243.1114144478261 0  0.0949232442452228 256.8885856095658 0  0.3796208935834784 263.7719401236316 0  0.8538767530323526 270.6448364248016 0  1.517330679476544 277.5020553295092 0  2.369478854618649 284.3383895555228 0  3.409674170191892 291.1486476952655 0  4.6371267162381 297.9276581311522 0  6.050904381420935 304.6702729724059 0  7.649933562385399 311.3713719716595 0  9.43299997979841 318.0258664133013 0  11.3987495994252 324.6287029719946 0  13.54568965885832 331.174867545904 0  15.87218979367188 337.6593890464085 0  18.37648329843151 344.0773432384132 0  21.05666844777872 350.423856417535 0  23.91070995156048 356.6941091410045 0  26.93644048988043 362.8833398632205 0  30.13156235982007 368.9868485575877 0  33.49364924138357 375.0000003247478 0  37.0201480006036 380.9182288389023 0  40.70838066758398 386.7370398875706 0  44.55554644477201 392.4520147396792 0  48.55872386086904 398.0588135419111 0  52.71487295981296 403.5531785693063 0  57.02083760525949 408.9309374584583 0  61.47334790862246 414.1880064170849 0  66.06902271205095 419.320393319588 0  70.80437211216579 424.3242006890749 0  75.67580013809859 429.195628692521 0  80.6796075127923 433.930978054209 0  85.81199439754931 438.5266528008431 0  91.06906334717917 442.9791630582355 0  96.44682221438322 447.2851276501571 0  101.9411872243843 451.441276702356 0  107.5479859945825 455.4444540643537 0  113.2629608446994 459.2916198108319 0  119.0817718768376 462.9798524393601 0  125.0000003647644 466.5063511567065 0  131.0131521012763 469.8684379967393 0  137.1166607840049 473.0635598376539 0  143.3058914748804 476.0892903390826 0  149.5761441732679 478.9433318113714 0  155.9226573130112 481.6235169255377 0  162.3406114779862 484.1278104026658 0  168.8251329570439 486.4543105138039 0  175.3712974805475 488.601250542119 0  181.9741340135204 490.5670001408953 0  188.6286284005059 492.3500665318597 0  195.3297273788229 493.9490956972913 0  202.0723421640089 495.3628733414168 0  208.8513525529672 496.5903258712308 0  215.6616106544547 497.6305211744985 0  222.4979448327038 498.4826693384772 0  229.3551637102845 499.1461232581612 0  236.2280599621369 499.6203791111485 0  243.1114144470173 499.9050767573145 0  155.2373389820306 474.8197567317462 0  25.36256300907667 153.9152755065208 0  432.3709625126712 412.6214396304305 0  6.013151705810699 246.637913163471 0  246.6379131630491 493.986848294322 0  338.6995838441862 22.68244767887072 0  477.3175523131281 338.6995838660569 0  493.9868482700757 246.6379131399102 0  246.6201155078769 6.218451882810491 0  417.6179310263282 72.7156044707053 0  102.2232990934413 445.0100869616822 0  63.66330858966404 92.20354579482142 0  391.3105220491464 50.73522820883105 0  72.79295043967942 418.0702734974704 0  448.290574428537 108.25674339002 0  402.4604651193511 440.7462829841712 0  97.55317348421397 59.11376320116034 0  136.7376477664901 33.58246472647134 0  363.3288394375288 465.6947312928271 0  44.0678766556007 381.0860953771871 0  469.6905266180034 142.3890690100806 0  22.68244791668644 338.6995843487432 0  338.699584349159 477.317552078365 0  173.389488083762 18.6681884918202 0  483.4809734778481 179.7121987795732 0  13.50237455842738 306.4709525540879 0  305.9825168523021 487.24416992
[...]
<PointData  Vectors="f_12"> 
<DataArray  type="Float64"  Name="f_12"  NumberOfComponents="3" format="ascii">0.0000000000000000e+00 6.8394816076169651e-01 1.2075053724177050e-02  0.0000000000000000e+00 4.4883238878298792e-01 8.2897463129525777e-03  0.0000000000000000e+00 9.4750794223386925e-01 5.6368519394678962e-02  0.0000000000000000e+00 1.3486580693843878e-01 1.0031619246832105e-02  0.0000000000000000e+00 9.4758609366760127e-01 5.6701934424690716e-02  0.0000000000000000e+00 9.4762649214890404e-01 5.6890014238231972e-02  0.0000000000000000e+00 9.4765254710831526e-01 5.7007469727832660e-02  0.0000000000000000e+00 9.4764894840078717e-01 5.7000029465873223e-02  0.0000000000000000e+00 9.4762462887748666e-01 5.6891576785915610e-02  0.0000000000000000e+00 9.4757832560820310e-01 5.6676952907744438e-02  0.0000000000000000e+00 9.4750788720289381e-01 5.6363429928131391e-02  0.0000000000000000e+00 9.4741286285389303e-01 5.5964609401316825e-02  0.0000000000000000e+00 9.4728956469123782e-01 5.5478702478372693e-02  0.0000000000000000e+00 9.4713189875145187e-01 5.4902698523852524e-02  0.0000000000000000e+00 9.4692159677967480e-01 5.4201269713461835e-02  0.0000000000000000e+00 9.4670320051824808e-01 5.3511769434744359e-02  0.0000000000000000e+00 9.4639103714759110e-01 5.2645569898369299e-02  0.0000000000000000e+00 9.4605258132407932e-01 5.1799490050616737e-02  0.0000000000000000e+00 9.4564885059348991e-01 5.0888856661470104e-02  0.0000000000000000e+00 9.4518485728713575e-01 4.9934582103685239e-02  0.0000000000000000e+00 9.4465768807011896e-01 4.8964382126072542e-02  0.0000000000000000e+00 9.4402924526843879e-01 4.7952141849734550e-02  0.0000000000000000e+00 9.4331403604871744e-01 4.6916814220618386e-02  0.0000000000000000e+00 9.4252770220289606e-01 4.5885882158924009e-02  0.0000000000000000e+00 9.4162729559971448e-01 4.4819668338181393e-02  0.0000000000000000e+00 9.4057655382036631e-01 4.3701302690931046e-02  0.0000000000000000e+00 9.3935623581510941e-01 4.2523953557501971e-02  0.0000000000000000e+00 9.3802116085140752e-01 4.1359349811991422e-02  0.0000000000000000e+00 9.3652310361689672e-01 4.0184722870555287e-02  0.0000000000000000e+00 9.3480655972929727e-01 3.8977900144003853e-02  0.0000000000000000e+00 9.3295384050045649e-01 3.7816236974998967e-02  0.0000000000000000e+00 9.3089669181099477e-01 3.6670763261583486e-02  0.0000000000000000e+00 9.2862794746291222e-01 3.5538431909774716e-02  0.0000000000000000e+00 9.2613790283329422e-01 3.4419027776418809e-02  0.0000000000000000e+00 9.2329397191678586e-01 3.3269259013587758e-02  0.0000000000000000e+00 9.2014657127610311e-01 3.2117824610339331e-02  0.0000000000000000e+00 9.1671957463063447e-01 3.0983123255638744e-02  0.0000000000000000e+00 9.1291970409742140e-01 2.9861080481339931e-02  0.0000000000000000e+00 9.0875389387218408e-01 2.8771958966612991e-02  0.0000000000000000e+00 9.0430543998576429e-01 2.7735174499070002e-02  0.0000000000000000e+00 8.9951586915576065e-01 2.6734228111138954e-02  0.0000000000000000e+00 8.9417556096474005e-01 2.5727176605075987e-02  0.0000000000000000e+00 8.8824289563418113e-01 2.4713524284165858e-02  0.0000000000000000e+00 8.8185905980941059e-01 2.3736624176752198e-02  0.0000000000000000e+00 8.7498030509343272e-01 2.2798875942739886e-02  0.0000000000000000e+00 8.6762775587392316e-01 2.1902078070402432e-02  0.0000000000000000e+00 8.5977040245621317e-01 2.1045889024506576e-02  0.0000000000000000e+00 8.5134494014477946e-01 2.0220712319142610e-02  0.0000000000000000e+00 8.4205049202415427e-01 1.9393881560569877e-02  0.0000000000000000e+00 8.3215584742518023e-01 1.8596128023470687e-02  0.0000000000000000e+00 8.2171996761489008e-01 1.7844759058872003e-02  0.0000000000000000e+00 8.1076692019132646e-01 1.7136640279758485e-02  0.0000000000000000e+00 7.9922864827791518e-01 1.6466265446601142e-02  0.0000000000000000e+00 7.8686158253394012e-01 1.5812157338826814e-02  0.0000000000000000e+00 7.7375947728333816e-01 1.5178617466524217e-02  0.0000000000000000e+00 7.6010964996858488e-01 1.4580343503926450e-02  0.0000000000000000e+00 7.4590277657746029e-01 1.4017218801776359e-02  0.0000000000000000e+00 7.3124263082727303e-01 1.3490486290885957e-02  0.0000000000000000e+00 7.1602481751600011e-01 1.2983874021136590e-02  0.0000000000000000e+00 7.0063527532806991e-01 1.2524572331544626e-02  0.0000000000000000e+00 6.6712399815421286e-01 1.1635231322995671e-02  0.0000000000000000e+00 6.5016527821959169e-01 1.1239778787248573e-02  0.0000000000000000e+00 6.3323103932635394e-01 1.0885449466445582e-02  0.0000000000000000e+00 6.1569639632364725e-01 1.0537549537226704e-02  0.0000000000000000e+00 5.9792151517545666e-01 1.0214379651706001e-02  0.0000000000000000e+00 5.7989477282920510e-01 9.9055594970755972e-03  0.0000000000000000e+00 5.6206895541077029e-01 9.6293355370416344e-03  0.0000000000000000e+00 5.4440986214326215e-01 9.3787249934540063e-03  0.0000000000000000e+00 5.2677926348326831e-01 9.1468486315927147e-03  0.0000000000000000e+00 5.0911911617556194e-01 8.9307707337002006e-03  0.0000000000000000e+00 4.9146604720711307e-01 8.7279969855865308e-03  0.0000000000000000e+00 4.7425715868659857e-01 8.5484462830397769e-03  0.0000000000000000e+00 4.5745563683086998e-01 8.3897045847143442e-03  0.0000000000000000e+00 4.4107303475460041e-01 8.2501543858283753e-03  0.0000000000000000e+00 4.2492329961994618e-01 8.1238512341367131e-03  0.0000000000000000e+00 4.0901806656879086e-01 8.0106001060778337e-03  0.0000000000000000e+00 3.9349643060520023e-01 7.9105728464190887e-03  0.0000000000000000e+00 3.7858393323990519e-01 7.8282182745322299e-03  0.0000000000000000e+00 3.6431911336804335e-01 7.7631931451078856e-03  0.0000000000000000e+00 3.5057244064369070e-01 7.7120752216990355e-03  0.0000000000000000e+00 3.3713446520706247e-01 7.6711589451300879e-03  0.0000000000000000e+00 3.2414984050094608e-01 7.6420206282767252e-03  0.0000000000000000e+00 3.1158385455108084e-01 7.6238732584208834e-03  0.0000000000000000e+00 2.9969525327303775e-01 7.6183234253461652e-03  0.0000000000000000e+00 2.8846657243031676e-01 7.6256478624577920e-03  0.0000000000000000e+00 2.7782865262299472e-01 7.6445207703963276e-03  0.0000000000000000e+00 2.6764243720994862e-01 7.6731675122793126e-03  0.0000000000000000e+00 2.5781327238840102e-01 7.7107588972101203e-03  0.0000000000000000e+00 2.4835763197118380e-01 7.7553753817263564e-03  0.0000000000000000e+00 2.3935839557166111e-01 7.8094391658041053e-03  0.0000000000000000e+00 2.3092265465725431e-01 7.8717766549459330e-03  0.0000000000000000e+00 2.2306814971518349e-01 7.9420043214605933e-03  0.0000000000000000e+00 2.1570293905617818e-01 8.0197837638676071e-03  0.0000000000000000e+00 2.0880772493438976e-01 8.1029868127340827e-03  0.0000000000000000e+00 2.0232838327824126e-01 8.1908742506669532e-03  0.0000000000000000e+00 1.9603732357481871e-01 8.2841732718294571e-03  0.0000000000000000e+00 1.9004169860601519e-01 8.3826569258894958e-03  0.0000000000000000e+00 1.8451130933595875e-01 8.4839303058376579e-03  0.0000000000000000e+00 1.7926246029339732e-01 8.5886504284282249e-03  0.0000000000000000e+00 1.7434552475714535e-01 8.6963952084082377e-03  0.0000000000000000e+00 1.6997871432268211e-01 8.8015053085854066e-03  0.0000000000000000e+00 1.6593608199183077e-01 8.9085931249114295e-03  0.0000000000000000e+00 1.6222709522349915e-01 9.0127442512652148e-03  0.0000000000000000e+00 1.5878065057525234e-01 9.1160717768429163e-03  0.0000000000000000e+00 1.5559572332505264e-01 9.2168386076743464e-03  0.0000000000000000e+00 1.5263545016630009e-01 9.3155579624023405e-03  0.0000000000000000e+00 1.4991203995771513e-01 9.4107661615608646e-03  0.0000000000000000e+00 1.4743021153741240e-01 9.5016072261077424e-03  0.0000000000000000e+00 1.4514003244910123e-01 9.5887857509568165e-03  0.0000000000000000e+00 1.4304609914553271e-01 9.6709447077464403e-03  0.0000000000000000e+00 1.4119987950825061e-01 9.7462713440594137e-03  0.0000000000000000e+00 1.3960705560574263e-01 9.8140557857052287e-03  0.0000000000000000e+00 1.3826524118272429e-01 9.8739942228572835e-03  0.0000000000000000e+00 1.3708809606173117e-01 9.9276714679752288e-03  0.0000000000000000e+00 1.3614756611709380e-01 9.9712617611715966e-03  0.0000000000000000e+00 1.3539272375101311e-01 1.0006449437669410e-02  0.0000000000000000e+00 1.3463242486599888e-01 1.0044172945145568e-02  0.0000000000000000e+00 1.3411715098052629e-01 1.0065600490496219e-02  0.0000000000000000e+00 1.3436187697028373e-01 1.0056264420641701e-02  0.0000000000000000e+00 1.3456874595625617e-01 1.0046143399038627e-02  0.0000000000000000e+00 1.3493008296582079e-01 1.0028518678207260e-02  0.0000000000000000e+00 1.3551211996927170e-01 1.0001455348528174e-02  0.0000000000000000e+00 1.3630944403302217e-01 9.9645520606343029e-03  0.0000000000000000e+00 1.3724411523709196e-01 9.9216119230115633e-03  0.0000000000000000e+00 1.3838075315460963e-01 9.8704713016097134e-03  0.0000000000000000e+00 1.3946803168723340e-01 9.8208413146289465e-03  0.0000000000000000e+00 1.4108787656450597e-01 9.7525174005050064e-03  0.0000000000000000e+00 1.4278552246052309e-01 9.6827285477944242e-03  0.0000000000000000e+00 1.4464332428284399e-01 9.6091368434948164e-03  0.0000000000000000e+00 1.4657757080295339e-01 9.5330355844098508e-03  0.0000000000000000e+00 1.4872173581733145e-01 9.4525331432558542e-03  0.0000000000000000e+00 1.5111967753055847e-01 9.3674334337451939e-03  0.0000000000000000e+00 1.5360757703894823e-01 9.2820171024975452e-03  0.0000000000000000e+00 1.5623572545711495e-01 9.1948138935920715e-03  0.0000000000000000e+00 1.5901264031393045e-01 9.1066928479024180e-03  0.0000000000000000e+00 1.6196454657795722e-01 9.0179514992818864e-03  0.0000000000000000e+00 1.6514051885491479e-01 8.9281243064855687e-03  0.0000000000000000e+00 1.6853798167929088e-01 8.8374700119021026e-03  0.0000000000000000e+00 1.7211770459903683e-01 8.7472768911857034e-03  0.0000000000000000e+00 1.7592239003075469e-01 8.6579694529720520e-03  0.0000000000000000e+00 1.7998481427694041e-01 8.5695414657642518e-03  0.0000000000000000e+00 1.8429425214768000e-01 8.4829131736363986e-03  0.0000000000000000e+00 1.8884258379663385e-01 8.3985589705185184e-03  0.0000000000000000e+00 1.9359076572137868e-01 8.3174258275322769e-03  0.0000000000000000e+00 1.9851862625680031e-01 8.2396480454731361e-03  0.0000000000000000e+00 2.0359746934561065e-01 8.1656503454710441e-03  0.0000000000000000e+00 2.0882478649285596e-01 8.0954004273935693e-03  0.0000000000000000e+00 2.1419724544956276e-01 8.0288810594531176e-03  0.0000000000000000e+00 2.1978565451433021e-01 7.9660926638272841e-03  0.0000000000000000e+00 2.2565277644968149e-01 7.9078825621457342e-03  0.0000000000000000e+00 2.3189864716262318e-01 7.8535074379576190e-03  0.0000000000000000e+00 2.3848330143264057e-01 7.8041210340389165e-03  0.0000000000000000e+00 2.4539305712273612e-01 7.7601106581682957e-03  0.0000000000000000e+00 2.5256379106803017e-01 7.7211583202929290e-03  0.0000000000000000e+00 2.5994268396748987e-01 7.6874363351906701e-03  0.0000000000000000e+00 2.6746694737136961e-01 7.6593491021330314e-03  0.0000000000000000e+00 2.7530934229180065e-01 7.6358335347392848e-03  0.0000000000000000e+00 2.8334735048968046e-01 7.6178939278914795e-03  0.0000000000000000e+00 2.9156910351933096e-01 7.6061807655310983e-03  0.0000000000000000e+00 3.0029249648067563e-01 7.6004472489577136e-03  0.0000000000000000e+00 3.0955698115701891e-01 7.6038210467327871e-03  0.0000000000000000e+00 3.1928356627118637e-01 7.6151419580065688e-03  0.0000000000000000e+00 3.2913292079113193e-01 7.6325554183750959e-03  0.0000000000000000e+00 3.3957272392611432e-01 7.6586309040566885e-03  0.0000000000000000e+00 3.5005651163183316e-01 7.6898299974159966e-03  0.0000000000000000e+00 3.6083466098427724e-01 7.7264709940906900e-03  0.0000000000000000e+00 3.7188937211606093e-01 7.7741089245625091e-03  0.0000000000000000e+00 3.8357505265769160e-01 7.8309266637878565e-03  0.0000000000000000e+00 3.9590091480582690e-01 7.9019363813637340e-03  0.0000000000000000e+00 4.0870433314588800e-01 7.9847834057708532e-03  0.0000000000000000e+00 4.2182721019614011e-01 8.0770269365155606e-03  0.0000000000000000e+00 4.3519038478832617e-01 8.1779548306935377e-03  0.0000000000000000e+00 4.6285617312345489e-01 8.4135486208559516e-03  0.0000000000000000e+00 4.7737799420678817e-01 8.5535371156481663e-03  0.0000000000000000e+00 4.9246055010556850e-01 8.7138812286694529e-03  0.0000000000000000e+00 5.0797783156671306e-01 8.8905739805220131e-03  0.0000000000000000e+00 5.2372579568627353e-01 9.0822090579538040e-03  0.0000000000000000e+00 5.3959651780557816e-01 9.2871411127642706e-03  0.0000000000000000e+00 5.5564027779262160e-01 9.5091584371457781e-03  0.0000000000000000e+00 5.7202473196453441e-01 9.7543605035109258e-03  0.0000000000000000e+00 5.8881413993932907e-01 1.0028018560018259e-02  0.0000000000000000e+00 6.0585454728959898e-01 1.0328913481018845e-02  0.0000000000000000e+00 6.2286886238913075e-01 1.0652105850912809e-02  0.0000000000000000e+00 6.3969069729630024e-01 1.0991934867348367e-02  0.0000000000000000e+00 6.5638674868030555e-01 1.1357591567213082e-02  0.0000000000000000e+00 6.7317300921979939e-01 1.1760622464779253e-02  0.0000000000000000e+00 6.8990643670872864e-01 1.2200542530196224e-02  0.0000000000000000e+00 7.0644953013358947e-01 1.2676672676923578e-02  0.0000000000000000e+00 7.2256126176228797e-01 1.3180202889068991e-02  0.0000000000000000e+00 7.3810720454945467e-01 1.3708273880632735e-02  0.0000000000000000e+00 7.5337006139072049e-01 1.4286581448588373e-02  0.0000000000000000e+00 7.6825483534523087e-01 1.4911617837844919e-02  0.0000000000000000e+00 7.8267550968805844e-01 1.5586477601205450e-02  0.0000000000000000e+00 7.9636836662371313e-01 1.6294004267959000e-02  0.0000000000000000e+00 8.0932019435890767e-01 1.7034671023283283e-02  0.0000000000000000e+00 8.2168114944627468e-01 1.7829952814480538e-02  0.0000000000000000e+00 8.3346588360989915e-01 1.8688639813761471e-02  0.0000000000000000e+00 8.4460127723749556e-01 1.9605428611645159e-02  0.0000000000000000e+00 8.5499066666446411e-01 2.0562707216492063e-02  0.0000000000000000e+00 8.6451260622176918e-01 2.1550202194184225e-02  0.0000000000000000e+00 8.7339449973262862e-01 2.2599291173861915e-02  0.0000000000000000e+00 8.8163848425575220e-01 2.3710950915922756e-02  0.0000000000000000e+00 8.8925237995135364e-01 2.4885558329645781e-02  0.0000000000000000e+00 8.9618769079519678e-01 2.6102493235281486e-02  0.0000000000000000e+00 9.0243783830758439e-01 2.7343618071427437e-02  0.0000000000000000e+00 9.0809831426494814e-01 2.8629572219909135e-02  0.0000000000000000e+00 9.1326387438801804e-01 2.9982773281396022e-02  0.0000000000000000e+00 9.1789040075051875e-01 3.1378995822698319e-02  0.0000000000000000e+00 9.2201458371471556e-01 3.2807651223740339e-02  0.0000000000000000e+00 9.2570853452405932e-01 3.4260443960316085e-02  0.0000000000000000e+00 9.2892411301333366e-01 3.5703103370982134e-02  0.0000000000000000e+00 9.3173849590951752e-01 3.7160868677611987e-02  0.0000000000000000e+00 9.3423922646500879e-01 3.8653756461116615e-02  0.0000000000000000e+00 9.3643195656168565e-01 4.0163782601419735e-02  0.0000000000000000e+00 9.3835190563134596e-01 4.1687900056873901e-02  0.0000000000000000e+00 9.3997531135428392e-01 4.3150429917119419e-02  0.0000000000000000e+00 9.4137134968289027e-01 4.4587484515298301e-02  0.0000000000000000e+00 9.4254186162401921e-01 4.5960674813768504e-02  0.0000000000000000e+00 9.4352957972974705e-01 4.7264832881444042e-02  0.0000000000000000e+00 9.4436889404798596e-01 4.8519507969109421e-02  0.0000000000000000e+00 9.4505567222072495e-01 4.9721432061617395e-02  0.0000000000000000e+00 9.4562531811830763e-01 5.0875407065083540e-02  0.0000000000000000e+00 9.4611198248687833e-01 5.1982576534228678e-02  0.0000000000000000e+00 9.4650026688621802e-01 5.2988553489676529e-02  0.0000000000000000e+00 9.4680596286042751e-01 5.3886721504160295e-02  0.0000000000000000e+00 9.4705228452291945e-01 5.4678435345035532e-02  0.0000000000000000e+00 9.4724719323572859e-01 5.5352892307029049e-02  0.0000000000000000e+00 9.4739088404457972e-01 5.5899392533075187e-02  0.0000000000000000e+00 9.3712856356989416e-01 4.0705475928257462e-02  0.0000000000000000e+00 2.8713365968672516e-01 7.6152445685041623e-03  0.0000000000000000e+00 9.2408439612408433e-01 3.3581076121999606e-02  0.0000000000000000e+00 4.4307051384795809e-01 8.2451946331419529e-03  0.0000000000000000e+00 9.4733110849914715e-01 5.5721544680729623e-02  0.0000000000000000e+00 1.6153542300056328e-01 9.0399419289369318e-03  0.0000000000000000e+00 8.5464066306576814e-01 2.0537698180231517e-02  0.0000000000000000e+00 6.7480552979170616e-01 1.1829576320613544e-02  0.0000000000000000e+00 1.3585875903374245e-01 9.9962255516180300e-03  0.0000000000000000e+00 2.4454033874669473e-01 7.7800460689783088e-03  0.0000000000000000e+00 9.0471862098298961e-01 2.7845095414348490e-02  0.0000000000000000e+00 2.1259990576678831e-01 8.0531838581900939e-03  0.0000000000000000e+00 2.0568261460212026e-01 8.1482010622846296e-03  0.0000000000000000e+00 8.5966957426776225e-01 2.1034401225566775e-02  0.0000000000000000e+00 3.1814495498489020e-01 7.6338488310783003e-03  0.0000000000000000e+00 9.3700200198501782e-01 4.0561519101933854e-02  0.0000000000000000e+00 1.7879790577733370e-01 8.6009744185418478e-03  0.0000000000000000e+00 1.5592181189523910e-01 9.2125264264904076e-03  0.0000000000000000e+00 9.4408771158584071e-01 4.8066428567007366e-02  0.0000000000000000e+00 7.7620828899212013e-01 1.5277297839128397e-02  0.0000000000000000e+00 4.0092441539487850e-01 7.9578442775981827e-03  0.0000000000000000e+00 6.6494314644697583e-01 1.1559846854801400e-02  0.0000000000000000e+00 9.4606708727014976e-01 5.1871404573027552e-02  0.0000000000000000e+00 1.4329284241112952e-01 9.6722007304470784e-03  0.0000000000000000e+00 4.9807265263044831e-01 8.8028366430900045e-03  0.0000000000000000e+00 5.8124412224688859e-01 9.9054816895197996e-03  0.0000000000000000e+00 9.4722926237603389e-01 5.5322130363482713e-02  0.0000000000000000e+00 9.4452365397294824e-01 4.8810860469295947e-02  0.0000000000000000e+00 3.4593902495545670e-01 7.6805428951879353e-03  0.0000000000000000e+00 1.4521390285602984e-01 9.5951452705719757e-03  0.0000000000000000e+00 7.9206373658431284e-01 1.6081720884396696e-02  0.0000000000000000e+00 9.0216650183383651e-01 2.7281354180112845e-02  0.0000000000000000e+00 1.3695891044463968e-01 9.9434691954258733e-03  0.0000000000000000e+00 5.6917154659212743e-01 9.7368626887331840e-03  0.0000000000000000e+00 5.1670875074224931e-01 8.9983377611553231e-03  0.0000000000000000e+00 9.4752955384847981e-01 5.6534433011395456e-02  0.0000000000000000e+00 1.8291539146820934e-01 8.5200307289475998e-03  0.0000000000000000e+00 2.5004611072664062e-01 7.7383344662991247e-03  0.0000000000000000e+00 9.4651472503956158e-01 5.3079023724217286e-02  0.0000000000000000e+00 9.2688328886044136e-01 3.4768240196659694e-02  0.0000000000000000e+00 3.9234119328624556e-01 7.8845348166789158e-03  0.0000000000000000e+00 1.3890531183988009e-01 9.8567976937050782e-03  0.0000000000000000e+00 7.3921401337232895e-01 1.3772808403901913e-02  0.0000000000000000e+00 9.4068950169630261e-01 4.3842158684549486e-02  0.0000000000000000e+00 8.2585261656248421e-01 1.8134480613098341e-02  0.0000000000000000e+00 1.3541904250983647e-01 1.0014871340004210e-02  0.0000000000000000e+00 1.5232361220900453e-01 9.3337675633291366e-03  0.0000000000000000e+00 6.2342596514541027e-01 1.0688128231688420e-02  0.0000000000000000e+00 2.7298227424756827e-01 7.6593655449225181e-03  0.0000000000000000e+00 9.4173164827257683e-01 4.5015924733363369e-02  0.0000000000000000e+00 9.1405069145649931e-01 3.0188000634390175e-02  0.0000000000000000e+00 8.2780287161533150e-01 1.8263248143263532e-02  0.0000000000000000e+00 1.6792885119423812e-01 8.8602578209700869e-03  0.0000000000000000e+00 7.3133214299043026e-01 1.3473023009324058e-02  0.0000000000000000e+00 3.1558713117362258e-01 7.6138723226137298e-03  0.0000000000000000e+00 8.8427502411216508e-01 2.4097859672020557e-02  0.0000000000