<?xml version="1.0"?>
<VTKFile type="UnstructuredGrid"  version="0.1"  >
<UnstructuredGrid>
<Piece  NumberOfPoints="4940" NumberOfCells="9650">
<Points>
<DataArray  type="Float64"  NumberOfComponents="3"  format="ascii">500 250 0  0 250 0  250 500 0  250 0 0  256.8885856082646 499.9050767557906 0  263.7719401218049 499.6203791065173 0  270.6448364229772 499.1461232471188 0  277.5020553257866 498.4826693209355 0  284.3383895508592 497.6305211460281 0  291.1486476865662 496.5903258312597 0  297.9276581259182 495.3628732847843 0  304.6702729675493 493.9490956196674 0  311.3713719748657 492.3500664368026 0  318.0258664141369 490.5670000199653 0  324.6287029687753 488.6012504015818 0  331.1748675330201 486.4543103455647 0  337.6593890460416 484.1278102064655 0  344.0773432429536 481.6235166997244 0  350.4238564271474 478.9433315480048 0  356.694109139292 476.0892900492477 0  362.88333985546 473.0635595140469 0  368.9868485575419 469.8684376402048 0  375.0000003153078 466.5063507640667 0  380.9182288257928 462.9798520074548 0  386.7370398729688 459.2916193419558 0  392.4520147244077 455.444453565817 0  398.0588135356345 451.4412761437442 0  403.5531785622926 447.285127045646 0  408.9309374414144 442.9791624087773 0  414.1880064015299 438.5266521049243 0  419.3203932989752 433.9309773069245 0  424.324200661095 429.1956279150535 0  429.1956286596235 424.3241998957182 0  433.9309780058756 419.3203925397119 0  438.5266527445345 414.1880056671062 0  442.9791630130591 408.9309367076756 0  447.2851276060475 403.5531778422888 0  451.4412766621026 398.0588128303826 0  455.4444540361634 392.4520140460735 0  459.2916197786263 386.7370392045948 0  462.9798524073514 380.9182281752347 0  466.5063511234856 374.9999996927758 0  469.8684379657123 368.9868479560565 0  473.0635598144817 362.8833392617846 0  476.0892903190255 356.6941085676214 0  478.9433317963513 350.4238558609745 0  481.6235169154735 344.0773427117675 0  484.12781039012 337.6593885555221 0  486.4543105028062 331.1748670749914 0  488.601250531677 324.6287025528375 0  490.5670001317469 318.0258660188321 0  492.3500665291326 311.3713716102628 0  493.949095695951 304.6702726271575 0  495.3628733416623 297.9276578347343 0  496.5903258712341 291.1486474470129 0  497.6305211749058 284.3383893426084 0  498.4826693388848 277.502055163614 0  499.1461232580606 270.6448362909296 0  499.6203791109319 263.7719400417897 0  499.9050767571306 256.8885855596534 0  499.9050767559877 243.1114143988867 0  499.6203791069493 236.2280598860241 0  499.1461232485393 229.3551635941651 0  498.4826693235677 222.4979446979962 0  497.6305211491849 215.6616104719064 0  496.5903258357701 208.8513523404629 0  495.3628732906988 202.0723419043604 0  493.9490956264813 195.3297270628552 0  492.3500664487791 188.6286280724281 0  490.5670000344809 181.9741336371959 0  488.6012504175981 175.3712970824318 0  486.4543103623226 168.8251325157939 0  484.1278102222298 162.3406109960628 0  481.6235167152198 155.9226567951971 0  478.9433315621651 149.5761436051346 0  476.0892900516498 143.3058908657982 0  473.063559513628 137.1166601437124 0  469.8684376406648 131.0131514433083 0  466.5063507675389 124.9999996907064 0  462.9798520124137 119.0817711822745 0  459.2916193464549 113.2629601339176 0  455.4444535642773 107.5479852733717 0  451.4412761528674 101.9411864767781 0  447.2851270583545 96.44682145403524 0  442.9791624165781 91.06906256805769 0  438.5266521117469 85.81199360630404 0  433.9309773156125 80.67960671046254 0  429.1956279150353 75.67579933888632 0  424.3241998888952 70.80437133373906 0  419.3203925223282 66.06902197812161 0  414.1880056411937 61.47334723289828 0  408.9309366751728 57.0208369601728 0  403.5531778009394 52.71487236176898 0  398.058812796452 48.55872331295853 0  392.4520140187753 44.55554594490843 0  386.7370391799677 40.70838020528396 0  380.9182281475119 37.02014757560744 0  374.9999996718656 33.49364886444181 0  368.9868479340393 30.13156202237255 0  362.8833392380029 26.93644017348339 0  356.6941085456942 23.91070967062674 0  350.4238558420009 21.0566681953261 0  344.0773426899492 18.37648307566465 0  337.6593885328982 15.87218960140942 0  331.1748670549786 13.54568949032341 0  324.6287025315056 11.39874946165088 0  318.0258660010876 9.432999863235466 0  311.3713716017894 7.649933468721599 0  304.6702726190621 6.050904302234756 0  297.9276578269805 4.637126656823085 0  291.148647441857 3.409674127905504 0  284.3383893425031 2.369478825079682 0  277.502055159398 1.517330660648639 0  270.6448362875833 0.853876741662134 0  263.7719400401456 0.3796208889774277 0  256.8885855592052 0.09492324285704967 0  243.1114143979462 0.09492324403817065 0  236.2280598850882 0.3796208931023841 0  229.3551635938215 0.8538767514891958 0  222.4979446968584 1.517330676558146 0  215.6616104703111 2.369478851036291 0  208.8513523382973 3.409674164591252 0  202.0723419066374 4.637126708856528 0  195.3297270659513 6.050904372824903 0  188.628628074828 7.649933550613184 0  181.9741336377093 9.432999965373938 0  175.3712970793675 11.39874958336037 0  168.8251325057572 13.54568964112298 0  162.340610986655 15.87218978129263 0  155.9226567874317 18.37648328793418 0  149.576143602509 21.05666843898663 0  143.3058908718157 23.91070994551046 0  137.1166601505524 26.93644048291054 0  131.0131514451933 30.13156235831508 0  124.9999996848412 33.49364923584736 0  119.0817711715717 37.0201479941652 0  113.2629601211624 40.70838066187849 0  107.5479852622251 44.55554644345162 0  101.9411864693332 48.55872385260452 0  96.44682143286516 52.71487295812284 0  91.06906254351222 57.02083760363669 0  85.81199358272519 61.4733479087879 0  80.67960667988106 66.06902271253972 0  75.67579930062769 70.80437212218331 0  70.80437129287643 75.67580015310926 0  66.06902193673014 80.67960752263491 0  61.47334718684866 85.81199441168215 0  57.02083692524275 91.0690633672404 0  52.71487232786438 96.44682224262129 0  48.55872328070024 101.941187247437 0  44.55554591578033 107.5479860232332 0  40.7083801742321 113.2629608675606 0  37.02014754791168 119.0817718975441 0  33.49364883372994 125.000000381329 0  30.13156199866361 131.0131521097709 0  26.9364401549829 137.1166607985551 0  23.91070965524918 143.3058914868915 0  21.05666818346614 149.576144185037 0  18.37648306853811 155.9226573275967 0  15.8721895918909 162.3406114925245 0  13.54568948170046 168.8251329701392 0  11.39874945301878 175.3712974960928 0  9.432999857087736 181.9741340206533 0  7.649933466342702 188.6286284076045 0  6.050904301250966 195.3297273853278 0  4.637126656808988 202.0723421730917 0  3.409674127767772 208.8513525589684 0  2.369478824521138 215.6616106615248 0  1.517330660909465 222.4979448382452 0  0.8538767414496533 229.355163714981 0  0.3796208887135322 236.2280599646376 0  0.09492324266324204 243.1114144478261 0  0.0949232442452228 256.8885856095658 0  0.3796208935834784 263.7719401236316 0  0.8538767530323526 270.6448364248016 0  1.517330679476544 277.5020553295092 0  2.369478854618649 284.3383895555228 0  3.409674170191892 291.1486476952655 0  4.6371267162381 297.9276581311522 0  6.050904381420935 304.6702729724059 0  7.649933562385399 311.3713719716595 0  9.43299997979841 318.0258664133013 0  11.3987495994252 324.6287029719946 0  13.54568965885832 331.174867545904 0  15.87218979367188 337.6593890464085 0  18.37648329843151 344.0773432384132 0  21.05666844777872 350.423856417535 0  23.91070995156048 356.6941091410045 0  26.93644048988043 362.8833398632205 0  30.13156235982007 368.9868485575877 0  33.49364924138357 375.0000003247478 0  37.0201480006036 380.9182288389023 0  40.70838066758398 386.7370398875706 0  44.55554644477201 392.4520147396792 0  48.55872386086904 398.0588135419111 0  52.71487295981296 403.5531785693063 0  57.02083760525949 408.9309374584583 0  61.47334790862246 414.1880064170849 0  66.06902271205095 419.320393319588 0  70.80437211216579 424.3242006890749 0  75.67580013809859 429.195628692521 0  80.6796075127923 433.930978054209 0  85.81199439754931 438.5266528008431 0  91.06906334717917 442.9791630582355 0  96.44682221438322 447.2851276501571 0  101.9411872243843 451.441276702356 0  107.5479859945825 455.4444540643537 0  113.2629608446994 459.2916198108319 0  119.0817718768376 462.9798524393601 0  125.0000003647644 466.5063511567065 0  131.0131521012763 469.8684379967393 0  137.1166607840049 473.0635598376539 0  143.3058914748804 476.0892903390826 0  149.5761441732679 478.9433318113714 0  155.9226573130112 481.6235169255377 0  162.3406114779862 484.1278104026658 0  168.8251329570439 486.4543105138039 0  175.3712974805475 488.601250542119 0  181.9741340135204 490.5670001408953 0  188.6286284005059 492.3500665318597 0  195.3297273788229 493.9490956972913 0  202.0723421640089 495.3628733414168 0  208.8513525529672 496.5903258712308 0  215.6616106544547 497.6305211744985 0  222.4979448327038 498.4826693384772 0  229.3551637102845 499.1461232581612 0  236.2280599621369 499.6203791111485 0  243.1114144470173 499.9050767573145 0  155.2373389820306 474.8197567317462 0  25.36256300907667 153.9152755065208 0  432.3709625126712 412.6214396304305 0  6.013151705810699 246.637913163471 0  246.6379131630491 493.986848294322 0  338.6995838441862 22.68244767887072 0  477.3175523131281 338.6995838660569 0  493.9868482700757 246.6379131399102 0  246.6201155078769 6.218451882810491 0  417.6179310263282 72.7156044707053 0  102.2232990934413 445.0100869616822 0  63.66330858966404 92.20354579482142 0  391.3105220491464 50.73522820883105 0  72.79295043967942 418.0702734974704 0  448.290574428537 108.25674339002 0  402.4604651193511 440.7462829841712 0  97.55317348421397 59.11376320116034 0  136.7376477664901 33.58246472647134 0  363.3288394375288 465.6947312928271 0  44.0678766556007 381.0860953771871 0  469.6905266180034 142.3890690100806 0  22.68244791668644 338.6995843487432 0  338.699584349159 477.317552078365 0  173.389488083762 18.6681884918202 0  483.4809734778481 179.7121987795732 0  13.50237455842738 306.4709525540879 0  305.9825168523021 487.24416992
[...]
<PointData  Vectors="f_12"> 
<DataArray  type="Float64"  Name="f_12"  NumberOfComponents="3" format="ascii">0.0000000000000000e+00 9.3342729170147676e-01 1.1672976886982223e-01  0.0000000000000000e+00 9.4839051788615947e-01 6.0500805559786944e-02  0.0000000000000000e+00 6.9129532757465606e-01 5.4561753557957671e-01  0.0000000000000000e+00 8.3183925869443998e-01 1.8349447550038998e-02  0.0000000000000000e+00 6.8961466857941056e-01 5.4819388198968266e-01  0.0000000000000000e+00 6.8861985021764349e-01 5.4971562588468648e-01  0.0000000000000000e+00 6.8804288250377488e-01 5.5059754525294236e-01  0.0000000000000000e+00 6.8807249607529475e-01 5.5055263792264975e-01  0.0000000000000000e+00 6.8861289920291957e-01 5.4972635116738977e-01  0.0000000000000000e+00 6.8967724102300676e-01 5.4809768863773822e-01  0.0000000000000000e+00 6.9125018880209843e-01 5.4568695931475386e-01  0.0000000000000000e+00 6.9328913894101074e-01 5.4255583327517221e-01  0.0000000000000000e+00 6.9579727165956551e-01 5.3869463953353647e-01  0.0000000000000000e+00 6.9878546935361630e-01 5.3407966794857198e-01  0.0000000000000000e+00 7.0236745913611376e-01 5.2852765449461481e-01  0.0000000000000000e+00 7.0604605744543192e-01 5.2280452506931840e-01  0.0000000000000000e+00 7.1047120463999403e-01 5.1588724873660508e-01  0.0000000000000000e+00 7.1493526771519456e-01 5.0887537770557145e-01  0.0000000000000000e+00 7.1969646553733180e-01 5.0136012594188462e-01  0.0000000000000000e+00 7.2463305231612141e-01 4.9352688722309507e-01  0.0000000000000000e+00 7.2963996323881197e-01 4.8553937617393689e-01  0.0000000000000000e+00 7.3482984842960952e-01 4.7721412307010019e-01  0.0000000000000000e+00 7.4012247040035795e-01 4.6867860520811921e-01  0.0000000000000000e+00 7.4544183289557775e-01 4.6005104591940732e-01  0.0000000000000000e+00 7.5097257089679137e-01 4.5103047960041642e-01  0.0000000000000000e+00 7.5682678876852183e-01 4.4142537080835015e-01  0.0000000000000000e+00 7.6303506265887755e-01 4.3117712344251763e-01  0.0000000000000000e+00 7.6933155664857156e-01 4.2071746869340620e-01  0.0000000000000000e+00 7.7575193925833208e-01 4.0998292901243433e-01  0.0000000000000000e+00 7.8230388246583848e-01 3.9895613160526189e-01  0.0000000000000000e+00 7.8864165245536932e-01 3.8822049442541012e-01  0.0000000000000000e+00 7.9484356728633132e-01 3.7764578522058562e-01  0.0000000000000000e+00 8.0093103705496738e-01 3.6720242896902522e-01  0.0000000000000000e+00 8.0696610963833193e-01 3.5678417341034491e-01  0.0000000000000000e+00 8.1318438229575929e-01 3.4598189309926647e-01  0.0000000000000000e+00 8.1950413185245952e-01 3.3493531216932032e-01  0.0000000000000000e+00 8.2583034011677947e-01 3.2380579702100837e-01  0.0000000000000000e+00 8.3213067188384571e-01 3.1264801403153930e-01  0.0000000000000000e+00 8.3824709228758332e-01 3.0174311777491469e-01  0.0000000000000000e+00 8.4404743353193634e-01 2.9133287809834491e-01  0.0000000000000000e+00 8.4963247869137615e-01 2.8124350338155135e-01  0.0000000000000000e+00 8.5524165955594700e-01 2.7104533461924912e-01  0.0000000000000000e+00 8.6091702914957602e-01 2.6065973252445851e-01  0.0000000000000000e+00 8.6649411037978874e-01 2.5038374051137574e-01  0.0000000000000000e+00 8.7190297566916475e-01 2.4034529894868151e-01  0.0000000000000000e+00 8.7705647989598945e-01 2.3070922624921225e-01  0.0000000000000000e+00 8.8194068987185992e-01 2.2150486569046984e-01  0.0000000000000000e+00 8.8664635942850467e-01 2.1256694309984864e-01  0.0000000000000000e+00 8.9135486689946808e-01 2.0355151323259291e-01  0.0000000000000000e+00 8.9596169951533311e-01 1.9465720343227394e-01  0.0000000000000000e+00 9.0036445183727420e-01 1.8607364997751835e-01  0.0000000000000000e+00 9.0449765610312705e-01 1.7793025661468578e-01  0.0000000000000000e+00 9.0837646836500829e-01 1.7019795490271941e-01  0.0000000000000000e+00 9.1211266799361879e-01 1.6265919394746753e-01  0.0000000000000000e+00 9.1573672937428274e-01 1.5525233087328510e-01  0.0000000000000000e+00 9.1920732929387783e-01 1.4805400285113615e-01  0.0000000000000000e+00 9.2248725404987886e-01 1.4113428316253798e-01  0.0000000000000000e+00 9.2553007121120889e-01 1.3458665915094534e-01  0.0000000000000000e+00 9.2835387069758979e-01 1.2837711001728178e-01  0.0000000000000000e+00 9.3092994179245736e-01 1.2256745422838385e-01  0.0000000000000000e+00 9.3579890288660361e-01 1.1107407327876280e-01  0.0000000000000000e+00 9.3792893640175612e-01 1.0576069051247236e-01  0.0000000000000000e+00 9.3978775312897567e-01 1.0087037815763943e-01  0.0000000000000000e+00 9.4149390532869182e-01 9.6137676339342754e-02  0.0000000000000000e+00 9.4303109768876470e-01 9.1578224877527814e-02  0.0000000000000000e+00 9.4441935638464769e-01 8.7143388834700727e-02  0.0000000000000000e+00 9.4559220124027343e-01 8.2971010795641689e-02  0.0000000000000000e+00 9.4654014301307243e-01 7.9092909125323851e-02  0.0000000000000000e+00 9.4728644960594988e-01 7.5440620334322916e-02  0.0000000000000000e+00 9.4785063883772835e-01 7.1935871251508840e-02  0.0000000000000000e+00 9.4824016118616727e-01 6.8528511523842081e-02  0.0000000000000000e+00 9.4842722596758933e-01 6.5301481326021246e-02  0.0000000000000000e+00 9.4840249214114269e-01 6.2285197822784050e-02  0.0000000000000000e+00 9.4816448351585159e-01 5.9494008839261196e-02  0.0000000000000000e+00 9.4772493561817761e-01 5.6854387823970814e-02  0.0000000000000000e+00 9.4708060514839254e-01 5.4311395505850561e-02  0.0000000000000000e+00 9.4622507660835420e-01 5.1855976800750068e-02  0.0000000000000000e+00 9.4515345265448314e-01 4.9541689005662665e-02  0.0000000000000000e+00 9.4387681693363201e-01 4.7404055656700979e-02  0.0000000000000000e+00 9.4240533652148395e-01 4.5425645460863487e-02  0.0000000000000000e+00 9.4072273624946712e-01 4.3549068216728763e-02  0.0000000000000000e+00 9.3881553352172764e-01 4.1755806634339081e-02  0.0000000000000000e+00 9.3666568232949421e-01 4.0018693738827625e-02  0.0000000000000000e+00 9.3430974029731861e-01 3.8384188842798761e-02  0.0000000000000000e+00 9.3177643867920834e-01 3.6873746512627738e-02  0.0000000000000000e+00 9.2909693013567984e-01 3.5490580808841300e-02  0.0000000000000000e+00 9.2626052318201135e-01 3.4206501541014345e-02  0.0000000000000000e+00 9.2322523202728402e-01 3.2982810051103102e-02  0.0000000000000000e+00 9.1996438528206614e-01 3.1798121414898912e-02  0.0000000000000000e+00 9.1647968144148484e-01 3.0659589860766143e-02  0.0000000000000000e+00 9.1283773063237150e-01 2.9591448447018609e-02  0.0000000000000000e+00 9.0911614274213837e-01 2.8611715208433794e-02  0.0000000000000000e+00 9.0534745582494880e-01 2.7718575470998041e-02  0.0000000000000000e+00 9.0157603247786378e-01 2.6905215316097617e-02  0.0000000000000000e+00 8.9778158900388505e-01 2.6153577531907005e-02  0.0000000000000000e+00 8.9381591487451006e-01 2.5422425282836506e-02  0.0000000000000000e+00 8.8971454608075007e-01 2.4717618387893082e-02  0.0000000000000000e+00 8.8558439720052851e-01 2.4059470429711294e-02  0.0000000000000000e+00 8.8134370535078832e-01 2.3428510828324301e-02  0.0000000000000000e+00 8.7709717654088404e-01 2.2837954356417493e-02  0.0000000000000000e+00 8.7308620980826412e-01 2.2321153084962443e-02  0.0000000000000000e+00 8.6920408160434592e-01 2.1854014604455824e-02  0.0000000000000000e+00 8.6551025105264423e-01 2.1434078967076227e-02  0.0000000000000000e+00 8.6196291290168037e-01 2.1050164030732135e-02  0.0000000000000000e+00 8.5856608099932175e-01 2.0698677355632755e-02  0.0000000000000000e+00 8.5528763373637662e-01 2.0372412534808867e-02  0.0000000000000000e+00 8.5214728182002819e-01 2.0070967876760576e-02  0.0000000000000000e+00 8.4916393571748050e-01 1.9793977664913930e-02  0.0000000000000000e+00 8.4629802019992639e-01 1.9535593758711743e-02  0.0000000000000000e+00 8.4357666778605800e-01 1.9296536331477706e-02  0.0000000000000000e+00 8.4108962330761972e-01 1.9083996879817992e-02  0.0000000000000000e+00 8.3886263268136962e-01 1.8899417076067616e-02  0.0000000000000000e+00 8.3692755769227378e-01 1.8744131773364234e-02  0.0000000000000000e+00 8.3519556696380715e-01 1.8607458299194343e-02  0.0000000000000000e+00 8.3378637883137630e-01 1.8497885270970373e-02  0.0000000000000000e+00 8.3264646168073775e-01 1.8409833835666318e-02  0.0000000000000000e+00 8.3146727427428979e-01 1.8323743088996203e-02  0.0000000000000000e+00 8.3070360086014794e-01 1.8260342440253260e-02  0.0000000000000000e+00 8.3105240763782617e-01 1.8290959821914948e-02  0.0000000000000000e+00 8.3136765123781087e-01 1.8314628588304672e-02  0.0000000000000000e+00 8.3192004483786741e-01 1.8355808352650417e-02  0.0000000000000000e+00 8.3280061684430318e-01 1.8423280425459810e-02  0.0000000000000000e+00 8.3399375217922278e-01 1.8516024666402644e-02  0.0000000000000000e+00 8.3537708620355855e-01 1.8623828066057255e-02  0.0000000000000000e+00 8.3702768710877840e-01 1.8754998481817123e-02  0.0000000000000000e+00 8.3860163509377594e-01 1.8878196280229624e-02  0.0000000000000000e+00 8.4084401713724810e-01 1.9065508887774609e-02  0.0000000000000000e+00 8.4312718484429860e-01 1.9259961919938551e-02  0.0000000000000000e+00 8.4555110185912841e-01 1.9470812923987134e-02  0.0000000000000000e+00 8.4800102611787642e-01 1.9687085494882725e-02  0.0000000000000000e+00 8.5061262335564192e-01 1.9925160105964002e-02  0.0000000000000000e+00 8.5341753450893887e-01 2.0190444867925057e-02  0.0000000000000000e+00 8.5622446267358365e-01 2.0462786326931413e-02  0.0000000000000000e+00 8.5908791028221942e-01 2.0748435063213427e-02  0.0000000000000000e+00 8.6201338730484278e-01 2.1050525685548761e-02  0.0000000000000000e+00 8.6502832893157355e-01 2.1374674536073484e-02  0.0000000000000000e+00 8.6817188531054867e-01 2.1728747045640904e-02  0.0000000000000000e+00 8.7143441703598912e-01 2.2113712717125197e-02  0.0000000000000000e+00 8.7475971371132211e-01 2.2526079651555883e-02  0.0000000000000000e+00 8.7815713486548364e-01 2.2971609906405635e-02  0.0000000000000000e+00 8.8161596813797416e-01 2.3452677222575102e-02  0.0000000000000000e+00 8.8508308114029388e-01 2.3964672403295705e-02  0.0000000000000000e+00 8.8851382971121173e-01 2.4502542236048599e-02  0.0000000000000000e+00 8.9185504693922335e-01 2.5057960764362112e-02  0.0000000000000000e+00 8.9508700955845233e-01 2.5626846178240802e-02  0.0000000000000000e+00 8.9820268903082545e-01 2.6207499550284563e-02  0.0000000000000000e+00 9.0122178920704732e-01 2.6804080909400337e-02  0.0000000000000000e+00 9.0416477266363715e-01 2.7422220292506235e-02  0.0000000000000000e+00 9.0707891356067005e-01 2.8078492943530282e-02  0.0000000000000000e+00 9.0998264644926696e-01 2.8786463998576855e-02  0.0000000000000000e+00 9.1289747644851427e-01 2.9557971827874317e-02  0.0000000000000000e+00 9.1576013884050977e-01 3.0383350276451893e-02  0.0000000000000000e+00 9.1852857940001409e-01 3.1252549213571006e-02  0.0000000000000000e+00 9.2115721850313614e-01 3.2147959070568381e-02  0.0000000000000000e+00 9.2362484035128845e-01 3.3059888281684817e-02  0.0000000000000000e+00 9.2593072536664167e-01 3.3984440731544115e-02  0.0000000000000000e+00 9.2814453289013654e-01 3.4954240432830463e-02  0.0000000000000000e+00 9.3025652365854106e-01 3.5968330811243419e-02  0.0000000000000000e+00 9.3226572324383550e-01 3.7037152791203426e-02  0.0000000000000000e+00 9.3422964323812796e-01 3.8205861888220401e-02  0.0000000000000000e+00 9.3611690405895520e-01 3.9475960548613735e-02  0.0000000000000000e+00 9.3788268415873510e-01 4.0820120721527277e-02  0.0000000000000000e+00 9.3947202032424493e-01 4.2175291863003894e-02  0.0000000000000000e+00 9.4094981299166680e-01 4.3608936705706099e-02  0.0000000000000000e+00 9.4226764732962820e-01 4.5056276470748995e-02  0.0000000000000000e+00 9.4347479861464589e-01 4.6580688895757283e-02  0.0000000000000000e+00 9.4455744332446367e-01 4.8209649465127812e-02  0.0000000000000000e+00 9.4554264882038597e-01 4.9995929978337891e-02  0.0000000000000000e+00 9.4640074570667920e-01 5.1932475725419980e-02  0.0000000000000000e+00 9.4711167783549011e-01 5.3970087670110835e-02  0.0000000000000000e+00 9.4767669852906755e-01 5.6065418580239390e-02  0.0000000000000000e+00 9.4810310219456195e-01 5.8224716039254366e-02  0.0000000000000000e+00 9.4853342931981333e-01 6.2952886861507379e-02  0.0000000000000000e+00 9.4851573614319751e-01 6.5622037634563687e-02  0.0000000000000000e+00 9.4832896349602214e-01 6.8497615786850624e-02  0.0000000000000000e+00 9.4798866743820021e-01 7.1515215718955930e-02  0.0000000000000000e+00 9.4750372229785151e-01 7.4639595676449594e-02  0.0000000000000000e+00 9.4686806728191697e-01 7.7906115443776791e-02  0.0000000000000000e+00 9.4605475936016670e-01 8.1402013879760995e-02  0.0000000000000000e+00 9.4503390697817580e-01 8.5207331952615636e-02  0.0000000000000000e+00 9.4380103651406688e-01 8.9319668173277647e-02  0.0000000000000000e+00 9.4238227215441639e-01 9.3665023341379258e-02  0.0000000000000000e+00 9.4080596840065167e-01 9.8176455304436278e-02  0.0000000000000000e+00 9.3906236454969771e-01 1.0289046465224495e-01  0.0000000000000000e+00 9.3709427187540284e-01 1.0793552129139518e-01  0.0000000000000000e+00 9.3485409073894088e-01 1.1341875433895308e-01  0.0000000000000000e+00 9.3238033155645783e-01 1.1925248372627328e-01  0.0000000000000000e+00 9.2970436083924246e-01 1.2536834346459713e-01  0.0000000000000000e+00 9.2684172185184999e-01 1.3173994306431983e-01  0.0000000000000000e+00 9.2375430045819340e-01 1.3844734643007076e-01  0.0000000000000000e+00 9.2034139011326621e-01 1.4569254387483485e-01  0.0000000000000000e+00 9.1663803033428504e-01 1.5340667769403912e-01  0.0000000000000000e+00 9.1269611665948402e-01 1.6148232395951312e-01  0.0000000000000000e+00 9.0856781306737722e-01 1.6981962300830497e-01  0.0000000000000000e+00 9.0418597166944903e-01 1.7855039162731584e-01  0.0000000000000000e+00 8.9943948579848088e-01 1.8788530412310517e-01  0.0000000000000000e+00 8.9434158503860106e-01 1.9779390817757300e-01  0.0000000000000000e+00 8.8899564398292563e-01 2.0807643644950286e-01  0.0000000000000000e+00 8.8346508768374532e-01 2.1861440532751289e-01  0.0000000000000000e+00 8.7772451135265650e-01 2.2945057415860853e-01  0.0000000000000000e+00 8.7159133042632730e-01 2.4092132986454495e-01  0.0000000000000000e+00 8.6510484704103818e-01 2.5294574000678260e-01  0.0000000000000000e+00 8.5837458382992793e-01 2.6531733995757051e-01  0.0000000000000000e+00 8.5151936888011004e-01 2.7781668796073195e-01  0.0000000000000000e+00 8.4454588787118989e-01 2.9043116276867131e-01  0.0000000000000000e+00 8.3729202481146436e-01 3.0344666819806465e-01  0.0000000000000000e+00 8.2966094548859637e-01 3.1702689270042633e-01  0.0000000000000000e+00 8.2184754934514592e-01 3.3081806264921398e-01  0.0000000000000000e+00 8.1400416842493439e-01 3.4455094787308899e-01  0.0000000000000000e+00 8.0615808055951310e-01 3.5818013677429450e-01  0.0000000000000000e+00 7.9839740872886056e-01 3.7155500358883270e-01  0.0000000000000000e+00 7.9055664570433593e-01 3.8496021585180829e-01  0.0000000000000000e+00 7.8250662172658936e-01 3.9861236786133036e-01  0.0000000000000000e+00 7.7437067874251297e-01 4.1229628664918944e-01  0.0000000000000000e+00 7.6627528208163143e-01 4.2580201080678681e-01  0.0000000000000000e+00 7.5856886203195117e-01 4.3855472477285690e-01  0.0000000000000000e+00 7.5118977816303634e-01 4.5067408528964559e-01  0.0000000000000000e+00 7.4423225070576815e-01 4.6201641359105666e-01  0.0000000000000000e+00 7.3764075103370264e-01 4.7268563052081114e-01  0.0000000000000000e+00 7.3129769188753380e-01 4.8288386274360706e-01  0.0000000000000000e+00 7.2521500671832950e-01 4.9260072354419115e-01  0.0000000000000000e+00 7.1934586871329653e-01 5.0191381265865631e-01  0.0000000000000000e+00 7.1370138531623084e-01 5.1081626303221117e-01  0.0000000000000000e+00 7.0854306617322915e-01 5.1890382976809202e-01  0.0000000000000000e+00 7.0393870813465143e-01 5.2608554821291753e-01  0.0000000000000000e+00 6.9988348520349453e-01 5.3237906548154112e-01  0.0000000000000000e+00 6.9643531194608632e-01 5.3771027727836540e-01  0.0000000000000000e+00 6.9363726920531921e-01 5.4201996214271619e-01  0.0000000000000000e+00 7.7106982609599184e-01 4.1781599208553533e-01  0.0000000000000000e+00 9.3117666832496415e-01 3.6465801743327815e-02  0.0000000000000000e+00 8.1118438006444471e-01 3.4946551448590396e-01  0.0000000000000000e+00 9.4827341436198009e-01 5.9534424926072430e-02  0.0000000000000000e+00 6.9388627301113082e-01 5.4163746163086735e-01  0.0000000000000000e+00 8.6475118969576714e-01 2.1366635213087671e-02  0.0000000000000000e+00 8.8467612003841856e-01 2.1631601108940687e-01  0.0000000000000000e+00 9.3471861539378087e-01 1.1368864615932313e-01  0.0000000000000000e+00 8.3324883557949492e-01 1.8479213897589580e-02  0.0000000000000000e+00 9.1849691688809143e-01 3.1317228328394363e-02  0.0000000000000000e+00 8.4156399388392678e-01 2.9579285701001823e-01  0.0000000000000000e+00 9.0327119012764501e-01 2.7248595424577915e-02  0.0000000000000000e+00 8.9973286361169313e-01 2.6545964298753718e-02  0.0000000000000000e+00 8.8063816101089276e-01 2.2396201234360580e-01  0.0000000000000000e+00 9.3781648375448046e-01 4.0927364112323249e-02  0.0000000000000000e+00 7.7324362895616283e-01 4.1418641916934174e-01  0.0000000000000000e+00 8.8057158744546105e-01 2.3322221034516744e-02  0.0000000000000000e+00 8.5870090956200407e-01 2.0725535362754094e-02  0.0000000000000000e+00 7.3368609282720532e-01 4.7905576948906886e-01  0.0000000000000000e+00 9.1447129345002487e-01 1.5785699446738838e-01  0.0000000000000000e+00 9.4666107658015464e-01 5.3034583198376471e-02  0.0000000000000000e+00 9.3598056309680977e-01 1.1068895993365849e-01  0.0000000000000000e+00 7.1392374067059117e-01 5.1046779551794530e-01  0.0000000000000000e+00 8.4370944937394621e-01 1.9329218950964965e-02  0.0000000000000000e+00 9.4810983661500159e-01 6.9819614555485535e-02  0.0000000000000000e+00 9.4436892605175193e-01 8.7451463227548570e-02  0.0000000000000000e+00 6.9585206388350096e-01 5.3860959544231790e-01  0.0000000000000000e+00 7.2927445208553265e-01 4.8612456446286656e-01  0.0000000000000000e+00 9.4174637621238133e-01 4.4493666090897804e-02  0.0000000000000000e+00 8.4629268070824748e-01 1.9552881919203579e-02  0.0000000000000000e+00 9.1047826062455084e-01 1.6596662677835747e-01  0.0000000000000000e+00 8.4635983683404070e-01 2.8716234253377221e-01  0.0000000000000000e+00 8.3488171478093232e-01 1.8602223609199584e-02  0.0000000000000000e+00 9.4513421028502520e-01 8.4651571483635751e-02  0.0000000000000000e+00 9.4772761690700547e-01 7.3242813010019711e-02  0.0000000000000000e+00 6.8975402717677270e-01 5.4797977407931486e-01  0.0000000000000000e+00 8.8425977969831993e-01 2.3872262579174630e-02  0.0000000000000000e+00 9.2022572648418832e-01 3.1841365980364925e-02  0.0000000000000000e+00 7.0744783091300434e-01 5.2061587622651750e-01  0.0000000000000000e+00 8.0311339738356768e-01 3.6344278708345973e-01  0.0000000000000000e+00 9.4615173604202263e-01 5.1375776360471852e-02  0.0000000000000000e+00 8.3773944384212728e-01 1.8830539016515480e-02  0.0000000000000000e+00 9.2383896337040017e-01 1.3823760776052685e-01  0.0000000000000000e+00 7.5540738570958976e-01 4.4376000814940475e-01  0.0000000000000000e+00 8.9850752474465156e-01 1.8970286661559319e-01  0.0000000000000000e+00 8.3258918146152661e-01 1.8424699069955624e-02  0.0000000000000000e+00 8.5486126797367545e-01 2.0346318672537372e-02  0.0000000000000000e+00 9.4073765074124560e-01 9.8269878145668552e-02  0.0000000000000000e+00 9.2775605190781751e-01 3.4877707136124779e-02  0.0000000000000000e+00 7.4852886553294895e-01 4.5501948055501001e-01  0.0000000000000000e+00 8.2991826963173621e-01 3.1657601853416406e-01  0.0000000000000000e+00 8.9678546123827163e-01 1.9305683353130162e-01  0.0000000000000000e+00 8.7081591377516776e-01 2.2057533832847066e-02  0.0000000000000000e+00 9.2513112146148957e-01 1.3547457734402193e-01  0.0000000000000000e+00 9.3720711020104852e-01 4.0316313406588151e-02  0.0000000000000000e+00 8.6420008881766386e-01 2.5461800334137485e-01  0.0000000000