<?xml version="1.0"?>
<VTKFile type="UnstructuredGrid"  version="0.1"  >
<UnstructuredGrid>
<Piece  NumberOfPoints="4940" NumberOfCells="9650">
<Points>
<DataArray  type="Float64"  NumberOfComponents="3"  format="ascii">500 250 0  0 250 0  250 500 0  250 0 0  256.8885856082646 499.9050767557906 0  263.7719401218049 499.6203791065173 0  270.6448364229772 499.1461232471188 0  277.5020553257866 498.4826693209355 0  284.3383895508592 497.6305211460281 0  291.1486476865662 496.5903258312597 0  297.9276581259182 495.3628732847843 0  304.6702729675493 493.9490956196674 0  311.3713719748657 492.3500664368026 0  318.0258664141369 490.5670000199653 0  324.6287029687753 488.6012504015818 0  331.1748675330201 486.4543103455647 0  337.6593890460416 484.1278102064655 0  344.0773432429536 481.6235166997244 0  350.4238564271474 478.9433315480048 0  356.694109139292 476.0892900492477 0  362.88333985546 473.0635595140469 0  368.9868485575419 469.8684376402048 0  375.0000003153078 466.5063507640667 0  380.9182288257928 462.9798520074548 0  386.7370398729688 459.2916193419558 0  392.4520147244077 455.444453565817 0  398.0588135356345 451.4412761437442 0  403.5531785622926 447.285127045646 0  408.9309374414144 442.9791624087773 0  414.1880064015299 438.5266521049243 0  419.3203932989752 433.9309773069245 0  424.324200661095 429.1956279150535 0  429.1956286596235 424.3241998957182 0  433.9309780058756 419.3203925397119 0  438.5266527445345 414.1880056671062 0  442.9791630130591 408.9309367076756 0  447.2851276060475 403.5531778422888 0  451.4412766621026 398.0588128303826 0  455.4444540361634 392.4520140460735 0  459.2916197786263 386.7370392045948 0  462.9798524073514 380.9182281752347 0  466.5063511234856 374.9999996927758 0  469.8684379657123 368.9868479560565 0  473.0635598144817 362.8833392617846 0  476.0892903190255 356.6941085676214 0  478.9433317963513 350.4238558609745 0  481.6235169154735 344.0773427117675 0  484.12781039012 337.6593885555221 0  486.4543105028062 331.1748670749914 0  488.601250531677 324.6287025528375 0  490.5670001317469 318.0258660188321 0  492.3500665291326 311.3713716102628 0  493.949095695951 304.6702726271575 0  495.3628733416623 297.9276578347343 0  496.5903258712341 291.1486474470129 0  497.6305211749058 284.3383893426084 0  498.4826693388848 277.502055163614 0  499.1461232580606 270.6448362909296 0  499.6203791109319 263.7719400417897 0  499.9050767571306 256.8885855596534 0  499.9050767559877 243.1114143988867 0  499.6203791069493 236.2280598860241 0  499.1461232485393 229.3551635941651 0  498.4826693235677 222.4979446979962 0  497.6305211491849 215.6616104719064 0  496.5903258357701 208.8513523404629 0  495.3628732906988 202.0723419043604 0  493.9490956264813 195.3297270628552 0  492.3500664487791 188.6286280724281 0  490.5670000344809 181.9741336371959 0  488.6012504175981 175.3712970824318 0  486.4543103623226 168.8251325157939 0  484.1278102222298 162.3406109960628 0  481.6235167152198 155.9226567951971 0  478.9433315621651 149.5761436051346 0  476.0892900516498 143.3058908657982 0  473.063559513628 137.1166601437124 0  469.8684376406648 131.0131514433083 0  466.5063507675389 124.9999996907064 0  462.9798520124137 119.0817711822745 0  459.2916193464549 113.2629601339176 0  455.4444535642773 107.5479852733717 0  451.4412761528674 101.9411864767781 0  447.2851270583545 96.44682145403524 0  442.9791624165781 91.06906256805769 0  438.5266521117469 85.81199360630404 0  433.9309773156125 80.67960671046254 0  429.1956279150353 75.67579933888632 0  424.3241998888952 70.80437133373906 0  419.3203925223282 66.06902197812161 0  414.1880056411937 61.47334723289828 0  408.9309366751728 57.0208369601728 0  403.5531778009394 52.71487236176898 0  398.058812796452 48.55872331295853 0  392.4520140187753 44.55554594490843 0  386.7370391799677 40.70838020528396 0  380.9182281475119 37.02014757560744 0  374.9999996718656 33.49364886444181 0  368.9868479340393 30.13156202237255 0  362.8833392380029 26.93644017348339 0  356.6941085456942 23.91070967062674 0  350.4238558420009 21.0566681953261 0  344.0773426899492 18.37648307566465 0  337.6593885328982 15.87218960140942 0  331.1748670549786 13.54568949032341 0  324.6287025315056 11.39874946165088 0  318.0258660010876 9.432999863235466 0  311.3713716017894 7.649933468721599 0  304.6702726190621 6.050904302234756 0  297.9276578269805 4.637126656823085 0  291.148647441857 3.409674127905504 0  284.3383893425031 2.369478825079682 0  277.502055159398 1.517330660648639 0  270.6448362875833 0.853876741662134 0  263.7719400401456 0.3796208889774277 0  256.8885855592052 0.09492324285704967 0  243.1114143979462 0.09492324403817065 0  236.2280598850882 0.3796208931023841 0  229.3551635938215 0.8538767514891958 0  222.4979446968584 1.517330676558146 0  215.6616104703111 2.369478851036291 0  208.8513523382973 3.409674164591252 0  202.0723419066374 4.637126708856528 0  195.3297270659513 6.050904372824903 0  188.628628074828 7.649933550613184 0  181.9741336377093 9.432999965373938 0  175.3712970793675 11.39874958336037 0  168.8251325057572 13.54568964112298 0  162.340610986655 15.87218978129263 0  155.9226567874317 18.37648328793418 0  149.576143602509 21.05666843898663 0  143.3058908718157 23.91070994551046 0  137.1166601505524 26.93644048291054 0  131.0131514451933 30.13156235831508 0  124.9999996848412 33.49364923584736 0  119.0817711715717 37.0201479941652 0  113.2629601211624 40.70838066187849 0  107.5479852622251 44.55554644345162 0  101.9411864693332 48.55872385260452 0  96.44682143286516 52.71487295812284 0  91.06906254351222 57.02083760363669 0  85.81199358272519 61.4733479087879 0  80.67960667988106 66.06902271253972 0  75.67579930062769 70.80437212218331 0  70.80437129287643 75.67580015310926 0  66.06902193673014 80.67960752263491 0  61.47334718684866 85.81199441168215 0  57.02083692524275 91.0690633672404 0  52.71487232786438 96.44682224262129 0  48.55872328070024 101.941187247437 0  44.55554591578033 107.5479860232332 0  40.7083801742321 113.2629608675606 0  37.02014754791168 119.0817718975441 0  33.49364883372994 125.000000381329 0  30.13156199866361 131.0131521097709 0  26.9364401549829 137.1166607985551 0  23.91070965524918 143.3058914868915 0  21.05666818346614 149.576144185037 0  18.37648306853811 155.9226573275967 0  15.8721895918909 162.3406114925245 0  13.54568948170046 168.8251329701392 0  11.39874945301878 175.3712974960928 0  9.432999857087736 181.9741340206533 0  7.649933466342702 188.6286284076045 0  6.050904301250966 195.3297273853278 0  4.637126656808988 202.0723421730917 0  3.409674127767772 208.8513525589684 0  2.369478824521138 215.6616106615248 0  1.517330660909465 222.4979448382452 0  0.8538767414496533 229.355163714981 0  0.3796208887135322 236.2280599646376 0  0.09492324266324204 243.1114144478261 0  0.0949232442452228 256.8885856095658 0  0.3796208935834784 263.7719401236316 0  0.8538767530323526 270.6448364248016 0  1.517330679476544 277.5020553295092 0  2.369478854618649 284.3383895555228 0  3.409674170191892 291.1486476952655 0  4.6371267162381 297.9276581311522 0  6.050904381420935 304.6702729724059 0  7.649933562385399 311.3713719716595 0  9.43299997979841 318.0258664133013 0  11.3987495994252 324.6287029719946 0  13.54568965885832 331.174867545904 0  15.87218979367188 337.6593890464085 0  18.37648329843151 344.0773432384132 0  21.05666844777872 350.423856417535 0  23.91070995156048 356.6941091410045 0  26.93644048988043 362.8833398632205 0  30.13156235982007 368.9868485575877 0  33.49364924138357 375.0000003247478 0  37.0201480006036 380.9182288389023 0  40.70838066758398 386.7370398875706 0  44.55554644477201 392.4520147396792 0  48.55872386086904 398.0588135419111 0  52.71487295981296 403.5531785693063 0  57.02083760525949 408.9309374584583 0  61.47334790862246 414.1880064170849 0  66.06902271205095 419.320393319588 0  70.80437211216579 424.3242006890749 0  75.67580013809859 429.195628692521 0  80.6796075127923 433.930978054209 0  85.81199439754931 438.5266528008431 0  91.06906334717917 442.9791630582355 0  96.44682221438322 447.2851276501571 0  101.9411872243843 451.441276702356 0  107.5479859945825 455.4444540643537 0  113.2629608446994 459.2916198108319 0  119.0817718768376 462.9798524393601 0  125.0000003647644 466.5063511567065 0  131.0131521012763 469.8684379967393 0  137.1166607840049 473.0635598376539 0  143.3058914748804 476.0892903390826 0  149.5761441732679 478.9433318113714 0  155.9226573130112 481.6235169255377 0  162.3406114779862 484.1278104026658 0  168.8251329570439 486.4543105138039 0  175.3712974805475 488.601250542119 0  181.9741340135204 490.5670001408953 0  188.6286284005059 492.3500665318597 0  195.3297273788229 493.9490956972913 0  202.0723421640089 495.3628733414168 0  208.8513525529672 496.5903258712308 0  215.6616106544547 497.6305211744985 0  222.4979448327038 498.4826693384772 0  229.3551637102845 499.1461232581612 0  236.2280599621369 499.6203791111485 0  243.1114144470173 499.9050767573145 0  155.2373389820306 474.8197567317462 0  25.36256300907667 153.9152755065208 0  432.3709625126712 412.6214396304305 0  6.013151705810699 246.637913163471 0  246.6379131630491 493.986848294322 0  338.6995838441862 22.68244767887072 0  477.3175523131281 338.6995838660569 0  493.9868482700757 246.6379131399102 0  246.6201155078769 6.218451882810491 0  417.6179310263282 72.7156044707053 0  102.2232990934413 445.0100869616822 0  63.66330858966404 92.20354579482142 0  391.3105220491464 50.73522820883105 0  72.79295043967942 418.0702734974704 0  448.290574428537 108.25674339002 0  402.4604651193511 440.7462829841712 0  97.55317348421397 59.11376320116034 0  136.7376477664901 33.58246472647134 0  363.3288394375288 465.6947312928271 0  44.0678766556007 381.0860953771871 0  469.6905266180034 142.3890690100806 0  22.68244791668644 338.6995843487432 0  338.699584349159 477.317552078365 0  173.389488083762 18.6681884918202 0  483.4809734778481 179.7121987795732 0  13.50237455842738 306.4709525540879 0  305.9825168523021 487.24416992
[...]
<PointData  Vectors="f_12"> 
<DataArray  type="Float64"  Name="f_12"  NumberOfComponents="3" format="ascii">0.0000000000000000e+00 1.8965045473667168e-02 1.1644165866096562e-01  0.0000000000000000e+00 1.5876719662584939e-02 3.5037916031123545e-01  0.0000000000000000e+00 1.1375278079436543e-01 1.1448477219962269e-02  0.0000000000000000e+00 2.8981115950185116e-01 9.9063987607491177e-01  0.0000000000000000e+00 1.1453859131491813e-01 1.1387859558853318e-02  0.0000000000000000e+00 1.1496126252699021e-01 1.1356278403669973e-02  0.0000000000000000e+00 1.1524378826509236e-01 1.1334199518333433e-02  0.0000000000000000e+00 1.1521765606949552e-01 1.1337678415061350e-02  0.0000000000000000e+00 1.1495739214687024e-01 1.1357626063387805e-02  0.0000000000000000e+00 1.1445034265127144e-01 1.1395562528477336e-02  0.0000000000000000e+00 1.1371713845772724e-01 1.1451283447935980e-02  0.0000000000000000e+00 1.1279557370820298e-01 1.1522900395501736e-02  0.0000000000000000e+00 1.1167697223392473e-01 1.1611595021873233e-02  0.0000000000000000e+00 1.1035602786542348e-01 1.1718936090796665e-02  0.0000000000000000e+00 1.0872445071006580e-01 1.1857453789435833e-02  0.0000000000000000e+00 1.0719480709990922e-01 1.1989525178107712e-02  0.0000000000000000e+00 1.0517794434865559e-01 1.2173257442768783e-02  0.0000000000000000e+00 1.0326183692595801e-01 1.2356766525288389e-02  0.0000000000000000e+00 1.0118690947679322e-01 1.2566360178407612e-02  0.0000000000000000e+00 9.9011536953179782e-02 1.2795086256095888e-02  0.0000000000000000e+00 9.6791685351955689e-02 1.3041074766784264e-02  0.0000000000000000e+00 9.4440059270378796e-02 1.3324999552195682e-02  0.0000000000000000e+00 9.2026809197724144e-02 1.3636261779114308e-02  0.0000000000000000e+00 8.9649569591605430e-02 1.3960700367606896e-02  0.0000000000000000e+00 8.7197856474012209e-02 1.4319369711374083e-02  0.0000000000000000e+00 8.4642019844975588e-02 1.4723159056405082e-02  0.0000000000000000e+00 8.1969071511620015e-02 1.5176490241503478e-02  0.0000000000000000e+00 7.9378897925529143e-02 1.5650201361329951e-02  0.0000000000000000e+00 7.6784315579072088e-02 1.6165120662907467e-02  0.0000000000000000e+00 7.4101955877904344e-02 1.6745304506814558e-02  0.0000000000000000e+00 7.1526981660493982e-02 1.7357555227765321e-02  0.0000000000000000e+00 6.8965013336795888e-02 1.8028269200120552e-02  0.0000000000000000e+00 6.6427025881038368e-02 1.8761524784448015e-02  0.0000000000000000e+00 6.3938575606151002e-02 1.9549314371829073e-02  0.0000000000000000e+00 6.1399540700437245e-02 2.0437628238693474e-02  0.0000000000000000e+00 5.8904356770468333e-02 2.1405868222923789e-02  0.0000000000000000e+00 5.6487777090196131e-02 2.2438315880822901e-02  0.0000000000000000e+00 5.4097835704197100e-02 2.3581645910649561e-02  0.0000000000000000e+00 5.1761843985338431e-02 2.4846393370823724e-02  0.0000000000000000e+00 4.9535301297449992e-02 2.6200408745465774e-02  0.0000000000000000e+00 4.7400371520324995e-02 2.7658461455660914e-02  0.0000000000000000e+00 4.5278402343018248e-02 2.9289440001487890e-02  0.0000000000000000e+00 4.3175619499186371e-02 3.1102547411066193e-02  0.0000000000000000e+00 4.1177704445247834e-02 3.3063675612554605e-02  0.0000000000000000e+00 3.9263365313243259e-02 3.5209933420326772e-02  0.0000000000000000e+00 3.7433478888997597e-02 3.7551359779644085e-02  0.0000000000000000e+00 3.5687661208871575e-02 4.0104678878917450e-02  0.0000000000000000e+00 3.4025786040468881e-02 4.2896961654673188e-02  0.0000000000000000e+00 3.2391459247068301e-02 4.6029905148303386e-02  0.0000000000000000e+00 3.0843594269019694e-02 4.9432340478250243e-02  0.0000000000000000e+00 2.9397020355805579e-02 5.3137088430829933e-02  0.0000000000000000e+00 2.8031603249911111e-02 5.7171146185760732e-02  0.0000000000000000e+00 2.6748430647319712e-02 6.1593737678356783e-02  0.0000000000000000e+00 2.5515515964919060e-02 6.6506224383212423e-02  0.0000000000000000e+00 2.4349851290788767e-02 7.1888246666475419e-02  0.0000000000000000e+00 2.3271692544504945e-02 7.7733056099637710e-02  0.0000000000000000e+00 2.2266089294170906e-02 8.4125026158446747e-02  0.0000000000000000e+00 2.1340682172565205e-02 9.1116485873879841e-02  0.0000000000000000e+00 2.0464037700209253e-02 9.8741236058515702e-02  0.0000000000000000e+00 1.9676860269694712e-02 1.0684079022353124e-01  0.0000000000000000e+00 1.8257499933171748e-02 1.2633778687366232e-01  0.0000000000000000e+00 1.7661226336325577e-02 1.3719076703363889e-01  0.0000000000000000e+00 1.7145986452820488e-02 1.4884857861022766e-01  0.0000000000000000e+00 1.6665441301889277e-02 1.6175150461125434e-01  0.0000000000000000e+00 1.6265395782963252e-02 1.7581770572329211e-01  0.0000000000000000e+00 1.5914444709265559e-02 1.9107979326982041e-01  0.0000000000000000e+00 1.5652706397452910e-02 2.0752574465379031e-01  0.0000000000000000e+00 1.5458514411180450e-02 2.2524025257302413e-01  0.0000000000000000e+00 1.5339298406249419e-02 2.4442650588340994e-01  0.0000000000000000e+00 1.5299561495614391e-02 2.6517441722519669e-01  0.0000000000000000e+00 1.5339219005115706e-02 2.8759633615250751e-01  0.0000000000000000e+00 1.5483587517149587e-02 3.1144337746328782e-01  0.0000000000000000e+00 1.5730918771935023e-02 3.3690036258182937e-01  0.0000000000000000e+00 1.6099292666604179e-02 3.6403603494393078e-01  0.0000000000000000e+00 1.6603180471843591e-02 3.9301336988069963e-01  0.0000000000000000e+00 1.7268207473270233e-02 4.2376255807296753e-01  0.0000000000000000e+00 1.8118095580774433e-02 4.5610976037450901e-01  0.0000000000000000e+00 1.9186170921027253e-02 4.8977658721862793e-01  0.0000000000000000e+00 2.0512952130538588e-02 5.2465798418206699e-01  0.0000000000000000e+00 2.2154742261550217e-02 5.6075327305530809e-01  0.0000000000000000e+00 2.4187015189817068e-02 5.9811941307794880e-01  0.0000000000000000e+00 2.6674880241015258e-02 6.3589203093697866e-01  0.0000000000000000e+00 2.9698892942546178e-02 6.7382890247856619e-01  0.0000000000000000e+00 3.3309523257882841e-02 7.1094480969683060e-01  0.0000000000000000e+00 3.7597864767149484e-02 7.4693370679645243e-01  0.0000000000000000e+00 4.2642291115439594e-02 7.8147462286039393e-01  0.0000000000000000e+00 4.8528015828097529e-02 8.1431704634982083e-01  0.0000000000000000e+00 5.5304548102762849e-02 8.4514906050672933e-01  0.0000000000000000e+00 6.2954796448631070e-02 8.7348089114881522e-01  0.0000000000000000e+00 7.1391960738290211e-02 8.9903307449374548e-01  0.0000000000000000e+00 8.0490374778972570e-02 9.2153754988398551e-01  0.0000000000000000e+00 9.0143063899721432e-02 9.4109137693935274e-01  0.0000000000000000e+00 1.0034392346768439e-01 9.5796949658789909e-01  0.0000000000000000e+00 1.1091032546263987e-01 9.7223735270900047e-01  0.0000000000000000e+00 1.2173461463869586e-01 9.8403905155507432e-01  0.0000000000000000e+00 1.3304719365527090e-01 9.9383958580945753e-01  0.0000000000000000e+00 1.4452387363265876e-01 1.0016528074325619e+00  0.0000000000000000e+00 1.5575575988958804e-01 1.0074337044779196e+00  0.0000000000000000e+00 1.6704644548466110e-01 1.0116229393380178e+00  0.0000000000000000e+00 1.7820702735485613e-01 1.0144649327272524e+00  0.0000000000000000e+00 1.8866365266907198e-01 1.0159529042827802e+00  0.0000000000000000e+00 1.9883824126981253e-01 1.0165057853387294e+00  0.0000000000000000e+00 2.0857166209099026e-01 1.0162252735841242e+00  0.0000000000000000e+00 2.1794251254813285e-01 1.0153182971406971e+00  0.0000000000000000e+00 2.2686129615455669e-01 1.0138738512641763e+00  0.0000000000000000e+00 2.3535096276046547e-01 1.0120256460892296e+00  0.0000000000000000e+00 2.4331313667161164e-01 1.0098903053220176e+00  0.0000000000000000e+00 2.5068863491792165e-01 1.0075854965338449e+00  0.0000000000000000e+00 2.5759579044477082e-01 1.0051536255060676e+00  0.0000000000000000e+00 2.6399054296068719e-01 1.0026728088147325e+00  0.0000000000000000e+00 2.6969015422131221e-01 1.0002967514267724e+00  0.0000000000000000e+00 2.7466102888390098e-01 9.9808064488623660e-01  0.0000000000000000e+00 2.7888732147955642e-01 9.9611334316448730e-01  0.0000000000000000e+00 2.8263488061386405e-01 9.9430002944536622e-01  0.0000000000000000e+00 2.8565470113406005e-01 9.9278769024099967e-01  0.0000000000000000e+00 2.8809574894881862e-01 9.9154028149282336e-01  0.0000000000000000e+00 2.9057479203125919e-01 9.9023405128700925e-01  0.0000000000000000e+00 2.9226144952453320e-01 9.8935055007312855e-01  0.0000000000000000e+00 2.9145531159132948e-01 9.8976775301365916e-01  0.0000000000000000e+00 2.9076993595693784e-01 9.9013085763324649e-01  0.0000000000000000e+00 2.8958544555885224e-01 9.9075444229377618e-01  0.0000000000000000e+00 2.8769372630672529e-01 9.9174379276798186e-01  0.0000000000000000e+00 2.8510849965001461e-01 9.9306277907133611e-01  0.0000000000000000e+00 2.8210255677891960e-01 9.9456020990447369e-01  0.0000000000000000e+00 2.7847272876490198e-01 9.9630630505897799e-01  0.0000000000000000e+00 2.7503844251730003e-01 9.9792350773774097e-01  0.0000000000000000e+00 2.6995092238572221e-01 1.0001837572340733e+00  0.0000000000000000e+00 2.6468437556565222e-01 1.0023854565765780e+00  0.0000000000000000e+00 2.5898426880599168e-01 1.0046332157634232e+00  0.0000000000000000e+00 2.5311168666626310e-01 1.0067576736937969e+00  0.0000000000000000e+00 2.4668503707730421e-01 1.0088637837386776e+00  0.0000000000000000e+00 2.3959613055986811e-01 1.0109263129995849e+00  0.0000000000000000e+00 2.3235740608863956e-01 1.0127231321788681e+00  0.0000000000000000e+00 2.2483905101198928e-01 1.0142405107961920e+00  0.0000000000000000e+00 2.1706190328903946e-01 1.0154153433757400e+00  0.0000000000000000e+00 2.0900141964411123e-01 1.0162000706693699e+00  0.0000000000000000e+00 2.0060075120330037e-01 1.0164898051801430e+00  0.0000000000000000e+00 1.9191869219933738e-01 1.0162116210110812e+00  0.0000000000000000e+00 1.8312241981594507e-01 1.0152641821223665e+00  0.0000000000000000e+00 1.7416674827396311e-01 1.0135616064553470e+00  0.0000000000000000e+00 1.6502822513146262e-01 1.0109820104125931e+00  0.0000000000000000e+00 1.5577627866088889e-01 1.0074157033395272e+00  0.0000000000000000e+00 1.4646069514275431e-01 1.0027437381783710e+00  0.0000000000000000e+00 1.3719017859052271e-01 9.9689203470144194e-01  0.0000000000000000e+00 1.2803383453134093e-01 9.8977209262524712e-01  0.0000000000000000e+00 1.1908424153543171e-01 9.8135011023992313e-01  0.0000000000000000e+00 1.1040562477521869e-01 9.7158660915573070e-01  0.0000000000000000e+00 1.0207462693925741e-01 9.6049238934397685e-01  0.0000000000000000e+00 9.4056817477001897e-02 9.4794974603173920e-01  0.0000000000000000e+00 8.6359246698111847e-02 9.3384068565179634e-01  0.0000000000000000e+00 7.8913215534172895e-02 9.1790829696437115e-01  0.0000000000000000e+00 7.1846706648000302e-02 9.0021306364202469e-01  0.0000000000000000e+00 6.5197216915641371e-02 8.8075667427782800e-01  0.0000000000000000e+00 5.9036534319267177e-02 8.5966634712357992e-01  0.0000000000000000e+00 5.3404549873684939e-02 8.3709073303608494e-01  0.0000000000000000e+00 4.8325919000483011e-02 8.1333082524105393e-01  0.0000000000000000e+00 4.3721220821851134e-02 7.8797484752027447e-01  0.0000000000000000e+00 3.9635930697429080e-02 7.6177022012899354e-01  0.0000000000000000e+00 3.6082755009445654e-02 7.3510912585021004e-01  0.0000000000000000e+00 3.2908488031217174e-02 7.0724415232490045e-01  0.0000000000000000e+00 3.0088231873790769e-02 6.7835305251530154e-01  0.0000000000000000e+00 2.7624486256712405e-02 6.4881684322852029e-01  0.0000000000000000e+00 2.5533129107245010e-02 6.1971117119305974e-01  0.0000000000000000e+00 2.3681520037758180e-02 5.8973597985969628e-01  0.0000000000000000e+00 2.2135852911503620e-02 5.6071970184124098e-01  0.0000000000000000e+00 2.0805725191197565e-02 5.3215382048447857e-01  0.0000000000000000e+00 1.9696514093422893e-02 5.0449497435899981e-01  0.0000000000000000e+00 1.8734517487366299e-02 4.7702971849504683e-01  0.0000000000000000e+00 1.7920865554612728e-02 4.4996210792369751e-01  0.0000000000000000e+00 1.7241342146480033e-02 4.2361838020254128e-01  0.0000000000000000e+00 1.6683223630697533e-02 3.9819379099643532e-01  0.0000000000000000e+00 1.6230712902308930e-02 3.7376385389917433e-01  0.0000000000000000e+00 1.5610872376490760e-02 3.2803715359493685e-01  0.0000000000000000e+00 1.5422045991790296e-02 3.0666128972994927e-01  0.0000000000000000e+00 1.5313345591850477e-02 2.8617618561029406e-01  0.0000000000000000e+00 1.5273735807487941e-02 2.6657575248001819e-01  0.0000000000000000e+00 1.5303086730025154e-02 2.4797948649361437e-01  0.0000000000000000e+00 1.5394456100087110e-02 2.3043877036258187e-01  0.0000000000000000e+00 1.5548027656916187e-02 2.1394714829864261e-01  0.0000000000000000e+00 1.5763773287315250e-02 1.9838852556122527e-01  0.0000000000000000e+00 1.6047451078373458e-02 1.8367902526905514e-01  0.0000000000000000e+00 1.6397148809379921e-02 1.6979505883550972e-01  0.0000000000000000e+00 1.6814724268149856e-02 1.5681461697844801e-01  0.0000000000000000e+00 1.7287562070233499e-02 1.4474482948378514e-01  0.0000000000000000e+00 1.7826866415846854e-02 1.3355957736710061e-01  0.0000000000000000e+00 1.8440148523426368e-02 1.2309989675985585e-01  0.0000000000000000e+00 1.9129751667877237e-02 1.1335704124474076e-01  0.0000000000000000e+00 1.9904475773123907e-02 1.0430006065311814e-01  0.0000000000000000e+00 2.0754254802457930e-02 9.5938494446163841e-02  0.0000000000000000e+00 2.1666854362527910e-02 8.8277119814873337e-02  0.0000000000000000e+00 2.2684307137258612e-02 8.1214468915556184e-02  0.0000000000000000e+00 2.3788912962377024e-02 7.4669913004124566e-02  0.0000000000000000e+00 2.5009029839206370e-02 6.8644747620511218e-02  0.0000000000000000e+00 2.6318300016219959e-02 6.3140403001568632e-02  0.0000000000000000e+00 2.7715404218106171e-02 5.8128063755913263e-02  0.0000000000000000e+00 2.9225450891091766e-02 5.3549437378782434e-02  0.0000000000000000e+00 3.0859021724797920e-02 4.9355166456137828e-02  0.0000000000000000e+00 3.2627243013224436e-02 4.5513810667869900e-02  0.0000000000000000e+00 3.4516480351933394e-02 4.2009024336548455e-02  0.0000000000000000e+00 3.6495126564044043e-02 3.8860761237309020e-02  0.0000000000000000e+00 3.8609662443366437e-02 3.5999065258419588e-02  0.0000000000000000e+00 4.0852999285949758e-02 3.3398314025289283e-02  0.0000000000000000e+00 4.3244528008673878e-02 3.1036395861499158e-02  0.0000000000000000e+00 4.5763840530059711e-02 2.8894492790760475e-02  0.0000000000000000e+00 4.8382406591447054e-02 2.6965533309738637e-02  0.0000000000000000e+00 5.1117212870109445e-02 2.5224901403327702e-02  0.0000000000000000e+00 5.3996320056619238e-02 2.3643053009242899e-02  0.0000000000000000e+00 5.6969837381911290e-02 2.2227810856790774e-02  0.0000000000000000e+00 6.0045122142294023e-02 2.0954600380872573e-02  0.0000000000000000e+00 6.3238559776928979e-02 1.9788967145878005e-02  0.0000000000000000e+00 6.6448796610208458e-02 1.8756579290448286e-02  0.0000000000000000e+00 6.9699312863983537e-02 1.7838854257496966e-02  0.0000000000000000e+00 7.3025544790861693e-02 1.7006001725255227e-02  0.0000000000000000e+00 7.6383740960041982e-02 1.6258153934189709e-02  0.0000000000000000e+00 7.9796942497486575e-02 1.5582681855032626e-02  0.0000000000000000e+00 8.3096056816749170e-02 1.4987213272373718e-02  0.0000000000000000e+00 8.6396739190350486e-02 1.4451861401217741e-02  0.0000000000000000e+00 8.9578721702119432e-02 1.3980181130596275e-02  0.0000000000000000e+00 9.2635787652583290e-02 1.3559798061187118e-02  0.0000000000000000e+00 9.5593798238875510e-02 1.3185097874136544e-02  0.0000000000000000e+00 9.8393338175048972e-02 1.2866589882535528e-02  0.0000000000000000e+00 1.0104325726072146e-01 1.2584165538242095e-02  0.0000000000000000e+00 1.0359467284916064e-01 1.2327065146242685e-02  0.0000000000000000e+00 1.0590238527270987e-01 1.2109684813153984e-02  0.0000000000000000e+00 1.0796016842336809e-01 1.1927896246588448e-02  0.0000000000000000e+00 1.0978922649111368e-01 1.1770134206603658e-02  0.0000000000000000e+00 1.1136516692682719e-01 1.1639232977958594e-02  0.0000000000000000e+00 1.1263815066243665e-01 1.1537151714028939e-02  0.0000000000000000e+00 7.7433335234065120e-02 1.6045841325822489e-02  0.0000000000000000e+00 3.7925754756751494e-02 7.4936324401256382e-01  0.0000000000000000e+00 6.1967927987948694e-02 2.0233307162255042e-02  0.0000000000000000e+00 1.6018981158204493e-02 3.6000239213649815e-01  0.0000000000000000e+00 1.1190978940135470e-01 1.1599680203658829e-02  0.0000000000000000e+00 2.1035949219919312e-01 1.0160924284235029e+00  0.0000000000000000e+00 3.4611034285770323e-02 4.1881305847226769e-02  0.0000000000000000e+00 1.8547059898282942e-02 1.2176814138926924e-01  0.0000000000000000e+00 2.8652903445616190e-01 9.9234031527586930e-01  0.0000000000000000e+00 6.6354279770673805e-02 8.8437920208071896e-01  0.0000000000000000e+00 4.9399058713889887e-02 2.6292123026417306e-02  0.0000000000000000e+00 1.0446269664318532e-01 9.6383173135587275e-01  0.0000000000000000e+00 1.1597748537931656e-01 9.7804038134368021e-01  0.0000000000000000e+00 3.5434908055286901e-02 4.0488991600045779e-02  0.0000000000000000e+00 2.8028221789345914e-02 6.5378817218525143e-01  0.0000000000000000e+00 7.7431309769497511e-02 1.6037433959622458e-02  0.0000000000000000e+00 1.6761004415880620e-01 1.0118005784245840e+00  0.0000000000000000e+00 2.2567123299490283e-01 1.0140855638095110e+00  0.0000000000000000e+00 9.4434449254663183e-02 1.3330228859943886e-02  0.0000000000000000e+00 2.4440018301911663e-02 7.1349181104534365e-02  0.0000000000000000e+00 1.7685404158552433e-02 4.4035678350974994e-01  0.0000000000000000e+00 1.8130653436278732e-02 1.2813461104821111e-01  0.0000000000000000e+00 1.0313731910042856e-01 1.2373720101762015e-02  0.0000000000000000e+00 2.6302944435455483e-01 1.0030828289738314e+00  0.0000000000000000e+00 1.5315027080585420e-02 2.7909278889212707e-01  0.0000000000000000e+00 1.5915970544596085e-02 1.9016404433157791e-01  0.0000000000000000e+00 1.1096558111566907e-01 1.1675614699360378e-02  0.0000000000000000e+00 9.6002538382460242e-02 1.3143637671507516e-02  0.0000000000000000e+00 2.2712411227461426e-02 5.7189500250783565e-01  0.0000000000000000e+00 2.5727221980373172e-01 1.0052807802202217e+00  0.0000000000000000e+00 2.5992541644055758e-02 6.4516010098068885e-02  0.0000000000000000e+00 4.8487049976723068e-02 2.6902211093089084e-02  0.0000000000000000e+00 2.8296686091178036e-01 9.9413335961421589e-01  0.0000000000000000e+00 1.5747160618430268e-02 2.0092500768261670e-01  0.0000000000000000e+00 1.5285479786726808e-02 2.5608812848580065e-01  0.0000000000000000e+00 1.1380129014411994e-01 1.1451010886524350e-02  0.0000000000000000e+00 1.5907044811240317e-01 1.0087827273847465e+00  0.0000000000000000e+00 6.1101119375467361e-02 8.6706824342726063e-01  0.0000000000000000e+00 1.0581367823499011e-01 1.2124531118295458e-02  0.0000000000000000e+00 6.4244262387919041e-02 1.9450363712062886e-02  0.0000000000000000e+00 1.8139693351873584e-02 4.5749272237760352e-01  0.0000000000000000e+00 2.7678597405548450e-01 9.9710885579579644e-01  0.0000000000000000e+00 2.1818173882566860e-02 8.7381848894338560e-02  0.0000000000000000e+00 8.4667054565573552e-02 1.4725022131420141e-02  0.0000000000000000e+00 2.9910475771241708e-02 5.1757244046601522e-02  0.0000000000000000e+00 2.8796030883395241e-01 9.9159683434665002e-01  0.0000000000000000e+00 2.3616900443369596e-01 1.0118170310878674e+00  0.0000000000000000e+00 1.6862527346792843e-02 1.5609346923771741e-01  0.0000000000000000e+00 4.5301277498577729e-02 7.9704401296518101e-01  0.0000000000000000e+00 8.7170405321804534e-02 1.4337875417650928e-02  0.0000000000000000e+00 5.4655980472899796e-02 2.3304424064932393e-02  0.0000000000000000e+00 3.0029316946968424e-02 5.1391478587860161e-02  0.0000000000000000e+00 1.9341172263106693e-01 1.0162930935566721e+00  0.0000000000000000e+00 2.1255424253167232e-02 9.1585113483450720e-02  0.0000000000000000e+00 2.8511903468879388e-02 6.5984858713690464e-01  0.0000000000000000e+00 4.1841643874711579e-02 3.2384586168479230e-02  0.0000000000