<?xml version="1.0"?>
<VTKFile type="UnstructuredGrid"  version="0.1"  >
<UnstructuredGrid>
<Piece  NumberOfPoints="4940" NumberOfCells="9650">
<Points>
<DataArray  type="Float64"  NumberOfComponents="3"  format="ascii">500 250 0  0 250 0  250 500 0  250 0 0  256.8885856082646 499.9050767557906 0  263.7719401218049 499.6203791065173 0  270.6448364229772 499.1461232471188 0  277.5020553257866 498.4826693209355 0  284.3383895508592 497.6305211460281 0  291.1486476865662 496.5903258312597 0  297.9276581259182 495.3628732847843 0  304.6702729675493 493.9490956196674 0  311.3713719748657 492.3500664368026 0  318.0258664141369 490.5670000199653 0  324.6287029687753 488.6012504015818 0  331.1748675330201 486.4543103455647 0  337.6593890460416 484.1278102064655 0  344.0773432429536 481.6235166997244 0  350.4238564271474 478.9433315480048 0  356.694109139292 476.0892900492477 0  362.88333985546 473.0635595140469 0  368.9868485575419 469.8684376402048 0  375.0000003153078 466.5063507640667 0  380.9182288257928 462.9798520074548 0  386.7370398729688 459.2916193419558 0  392.4520147244077 455.444453565817 0  398.0588135356345 451.4412761437442 0  403.5531785622926 447.285127045646 0  408.9309374414144 442.9791624087773 0  414.1880064015299 438.5266521049243 0  419.3203932989752 433.9309773069245 0  424.324200661095 429.1956279150535 0  429.1956286596235 424.3241998957182 0  433.9309780058756 419.3203925397119 0  438.5266527445345 414.1880056671062 0  442.9791630130591 408.9309367076756 0  447.2851276060475 403.5531778422888 0  451.4412766621026 398.0588128303826 0  455.4444540361634 392.4520140460735 0  459.2916197786263 386.7370392045948 0  462.9798524073514 380.9182281752347 0  466.5063511234856 374.9999996927758 0  469.8684379657123 368.9868479560565 0  473.0635598144817 362.8833392617846 0  476.0892903190255 356.6941085676214 0  478.9433317963513 350.4238558609745 0  481.6235169154735 344.0773427117675 0  484.12781039012 337.6593885555221 0  486.4543105028062 331.1748670749914 0  488.601250531677 324.6287025528375 0  490.5670001317469 318.0258660188321 0  492.3500665291326 311.3713716102628 0  493.949095695951 304.6702726271575 0  495.3628733416623 297.9276578347343 0  496.5903258712341 291.1486474470129 0  497.6305211749058 284.3383893426084 0  498.4826693388848 277.502055163614 0  499.1461232580606 270.6448362909296 0  499.6203791109319 263.7719400417897 0  499.9050767571306 256.8885855596534 0  499.9050767559877 243.1114143988867 0  499.6203791069493 236.2280598860241 0  499.1461232485393 229.3551635941651 0  498.4826693235677 222.4979446979962 0  497.6305211491849 215.6616104719064 0  496.5903258357701 208.8513523404629 0  495.3628732906988 202.0723419043604 0  493.9490956264813 195.3297270628552 0  492.3500664487791 188.6286280724281 0  490.5670000344809 181.9741336371959 0  488.6012504175981 175.3712970824318 0  486.4543103623226 168.8251325157939 0  484.1278102222298 162.3406109960628 0  481.6235167152198 155.9226567951971 0  478.9433315621651 149.5761436051346 0  476.0892900516498 143.3058908657982 0  473.063559513628 137.1166601437124 0  469.8684376406648 131.0131514433083 0  466.5063507675389 124.9999996907064 0  462.9798520124137 119.0817711822745 0  459.2916193464549 113.2629601339176 0  455.4444535642773 107.5479852733717 0  451.4412761528674 101.9411864767781 0  447.2851270583545 96.44682145403524 0  442.9791624165781 91.06906256805769 0  438.5266521117469 85.81199360630404 0  433.9309773156125 80.67960671046254 0  429.1956279150353 75.67579933888632 0  424.3241998888952 70.80437133373906 0  419.3203925223282 66.06902197812161 0  414.1880056411937 61.47334723289828 0  408.9309366751728 57.0208369601728 0  403.5531778009394 52.71487236176898 0  398.058812796452 48.55872331295853 0  392.4520140187753 44.55554594490843 0  386.7370391799677 40.70838020528396 0  380.9182281475119 37.02014757560744 0  374.9999996718656 33.49364886444181 0  368.9868479340393 30.13156202237255 0  362.8833392380029 26.93644017348339 0  356.6941085456942 23.91070967062674 0  350.4238558420009 21.0566681953261 0  344.0773426899492 18.37648307566465 0  337.6593885328982 15.87218960140942 0  331.1748670549786 13.54568949032341 0  324.6287025315056 11.39874946165088 0  318.0258660010876 9.432999863235466 0  311.3713716017894 7.649933468721599 0  304.6702726190621 6.050904302234756 0  297.9276578269805 4.637126656823085 0  291.148647441857 3.409674127905504 0  284.3383893425031 2.369478825079682 0  277.502055159398 1.517330660648639 0  270.6448362875833 0.853876741662134 0  263.7719400401456 0.3796208889774277 0  256.8885855592052 0.09492324285704967 0  243.1114143979462 0.09492324403817065 0  236.2280598850882 0.3796208931023841 0  229.3551635938215 0.8538767514891958 0  222.4979446968584 1.517330676558146 0  215.6616104703111 2.369478851036291 0  208.8513523382973 3.409674164591252 0  202.0723419066374 4.637126708856528 0  195.3297270659513 6.050904372824903 0  188.628628074828 7.649933550613184 0  181.9741336377093 9.432999965373938 0  175.3712970793675 11.39874958336037 0  168.8251325057572 13.54568964112298 0  162.340610986655 15.87218978129263 0  155.9226567874317 18.37648328793418 0  149.576143602509 21.05666843898663 0  143.3058908718157 23.91070994551046 0  137.1166601505524 26.93644048291054 0  131.0131514451933 30.13156235831508 0  124.9999996848412 33.49364923584736 0  119.0817711715717 37.0201479941652 0  113.2629601211624 40.70838066187849 0  107.5479852622251 44.55554644345162 0  101.9411864693332 48.55872385260452 0  96.44682143286516 52.71487295812284 0  91.06906254351222 57.02083760363669 0  85.81199358272519 61.4733479087879 0  80.67960667988106 66.06902271253972 0  75.67579930062769 70.80437212218331 0  70.80437129287643 75.67580015310926 0  66.06902193673014 80.67960752263491 0  61.47334718684866 85.81199441168215 0  57.02083692524275 91.0690633672404 0  52.71487232786438 96.44682224262129 0  48.55872328070024 101.941187247437 0  44.55554591578033 107.5479860232332 0  40.7083801742321 113.2629608675606 0  37.02014754791168 119.0817718975441 0  33.49364883372994 125.000000381329 0  30.13156199866361 131.0131521097709 0  26.9364401549829 137.1166607985551 0  23.91070965524918 143.3058914868915 0  21.05666818346614 149.576144185037 0  18.37648306853811 155.9226573275967 0  15.8721895918909 162.3406114925245 0  13.54568948170046 168.8251329701392 0  11.39874945301878 175.3712974960928 0  9.432999857087736 181.9741340206533 0  7.649933466342702 188.6286284076045 0  6.050904301250966 195.3297273853278 0  4.637126656808988 202.0723421730917 0  3.409674127767772 208.8513525589684 0  2.369478824521138 215.6616106615248 0  1.517330660909465 222.4979448382452 0  0.8538767414496533 229.355163714981 0  0.3796208887135322 236.2280599646376 0  0.09492324266324204 243.1114144478261 0  0.0949232442452228 256.8885856095658 0  0.3796208935834784 263.7719401236316 0  0.8538767530323526 270.6448364248016 0  1.517330679476544 277.5020553295092 0  2.369478854618649 284.3383895555228 0  3.409674170191892 291.1486476952655 0  4.6371267162381 297.9276581311522 0  6.050904381420935 304.6702729724059 0  7.649933562385399 311.3713719716595 0  9.43299997979841 318.0258664133013 0  11.3987495994252 324.6287029719946 0  13.54568965885832 331.174867545904 0  15.87218979367188 337.6593890464085 0  18.37648329843151 344.0773432384132 0  21.05666844777872 350.423856417535 0  23.91070995156048 356.6941091410045 0  26.93644048988043 362.8833398632205 0  30.13156235982007 368.9868485575877 0  33.49364924138357 375.0000003247478 0  37.0201480006036 380.9182288389023 0  40.70838066758398 386.7370398875706 0  44.55554644477201 392.4520147396792 0  48.55872386086904 398.0588135419111 0  52.71487295981296 403.5531785693063 0  57.02083760525949 408.9309374584583 0  61.47334790862246 414.1880064170849 0  66.06902271205095 419.320393319588 0  70.80437211216579 424.3242006890749 0  75.67580013809859 429.195628692521 0  80.6796075127923 433.930978054209 0  85.81199439754931 438.5266528008431 0  91.06906334717917 442.9791630582355 0  96.44682221438322 447.2851276501571 0  101.9411872243843 451.441276702356 0  107.5479859945825 455.4444540643537 0  113.2629608446994 459.2916198108319 0  119.0817718768376 462.9798524393601 0  125.0000003647644 466.5063511567065 0  131.0131521012763 469.8684379967393 0  137.1166607840049 473.0635598376539 0  143.3058914748804 476.0892903390826 0  149.5761441732679 478.9433318113714 0  155.9226573130112 481.6235169255377 0  162.3406114779862 484.1278104026658 0  168.8251329570439 486.4543105138039 0  175.3712974805475 488.601250542119 0  181.9741340135204 490.5670001408953 0  188.6286284005059 492.3500665318597 0  195.3297273788229 493.9490956972913 0  202.0723421640089 495.3628733414168 0  208.8513525529672 496.5903258712308 0  215.6616106544547 497.6305211744985 0  222.4979448327038 498.4826693384772 0  229.3551637102845 499.1461232581612 0  236.2280599621369 499.6203791111485 0  243.1114144470173 499.9050767573145 0  155.2373389820306 474.8197567317462 0  25.36256300907667 153.9152755065208 0  432.3709625126712 412.6214396304305 0  6.013151705810699 246.637913163471 0  246.6379131630491 493.986848294322 0  338.6995838441862 22.68244767887072 0  477.3175523131281 338.6995838660569 0  493.9868482700757 246.6379131399102 0  246.6201155078769 6.218451882810491 0  417.6179310263282 72.7156044707053 0  102.2232990934413 445.0100869616822 0  63.66330858966404 92.20354579482142 0  391.3105220491464 50.73522820883105 0  72.79295043967942 418.0702734974704 0  448.290574428537 108.25674339002 0  402.4604651193511 440.7462829841712 0  97.55317348421397 59.11376320116034 0  136.7376477664901 33.58246472647134 0  363.3288394375288 465.6947312928271 0  44.0678766556007 381.0860953771871 0  469.6905266180034 142.3890690100806 0  22.68244791668644 338.6995843487432 0  338.699584349159 477.317552078365 0  173.389488083762 18.6681884918202 0  483.4809734778481 179.7121987795732 0  13.50237455842738 306.4709525540879 0  305.9825168523021 487.24416992
[...]
<PointData  Vectors="f_12"> 
<DataArray  type="Float64"  Name="f_12"  NumberOfComponents="3" format="ascii">0.0000000000000000e+00 8.4230826120032676e-01 1.9395486261143072e-02  0.0000000000000000e+00 6.5485014606053016e-01 1.1291439832440679e-02  0.0000000000000000e+00 9.4246317053343942e-01 9.3420215542123763e-02  0.0000000000000000e+00 2.4218301764450581e-01 7.7540112567473568e-03  0.0000000000000000e+00 9.4229025930215637e-01 9.3936579884426483e-02  0.0000000000000000e+00 9.4218449850217967e-01 9.4249834479180797e-02  0.0000000000000000e+00 9.4212535938678521e-01 9.4424914984297684e-02  0.0000000000000000e+00 9.4212740239117809e-01 9.4418532437229696e-02  0.0000000000000000e+00 9.4218315674965514e-01 9.4253959211306471e-02  0.0000000000000000e+00 9.4229318163940878e-01 9.3928769187358832e-02  0.0000000000000000e+00 9.4245557143948022e-01 9.3445887507590142e-02  0.0000000000000000e+00 9.4266597963252441e-01 9.2814642700108571e-02  0.0000000000000000e+00 9.4292320228846949e-01 9.2034286381722785e-02  0.0000000000000000e+00 9.4322575883775095e-01 9.1102792086800347e-02  0.0000000000000000e+00 9.4357873205387910e-01 8.9996524884361398e-02  0.0000000000000000e+00 9.4394160360105384e-01 8.8837643861544260e-02  0.0000000000000000e+00 9.4435523162829893e-01 8.7477218363241238e-02  0.0000000000000000e+00 9.4476286812896693e-01 8.6092200561908278e-02  0.0000000000000000e+00 9.4517804443588560e-01 8.4629288035149838e-02  0.0000000000000000e+00 9.4558737106468704e-01 8.3125082381974150e-02  0.0000000000000000e+00 9.4597794620400311e-01 8.1610968529309547e-02  0.0000000000000000e+00 9.4635171096242354e-01 8.0061765696917489e-02  0.0000000000000000e+00 9.4670459219017422e-01 7.8492154132074346e-02  0.0000000000000000e+00 9.4703183273108738e-01 7.6911359729183643e-02  0.0000000000000000e+00 9.4734078617285344e-01 7.5267556584085599e-02  0.0000000000000000e+00 9.4763190493923832e-01 7.3521985864228048e-02  0.0000000000000000e+00 9.4790174171270691e-01 7.1659840600779789e-02  0.0000000000000000e+00 9.4813068118516897e-01 6.9742897140321017e-02  0.0000000000000000e+00 9.4830659118850735e-01 6.7774461562157107e-02  0.0000000000000000e+00 9.4841698495965943e-01 6.5768975598658672e-02  0.0000000000000000e+00 9.4844328586296778e-01 6.3830735997153984e-02  0.0000000000000000e+00 9.4837814066295578e-01 6.1955183180558954e-02  0.0000000000000000e+00 9.4822116051199579e-01 6.0136770090408777e-02  0.0000000000000000e+00 9.4796901736629635e-01 5.8344221140199153e-02  0.0000000000000000e+00 9.4760225585829139e-01 5.6506092435992035e-02  0.0000000000000000e+00 9.4711031072662277e-01 5.4624732707858621e-02  0.0000000000000000e+00 9.4647975246761062e-01 5.2713273375199148e-02  0.0000000000000000e+00 9.4568475745687031e-01 5.0794174491307374e-02  0.0000000000000000e+00 9.4471913488744019e-01 4.8929629022078487e-02  0.0000000000000000e+00 9.4359875411982652e-01 4.7170736780018388e-02  0.0000000000000000e+00 9.4231008622309509e-01 4.5494378619525343e-02  0.0000000000000000e+00 9.4080073615688842e-01 4.3826738291639286e-02  0.0000000000000000e+00 9.3903029892740297e-01 4.2135385481772793e-02  0.0000000000000000e+00 9.3698348645768337e-01 4.0449813123586836e-02  0.0000000000000000e+00 9.3464556273454025e-01 3.8793249539576732e-02  0.0000000000000000e+00 9.3204164013386648e-01 3.7207875094056146e-02  0.0000000000000000e+00 9.2917704513842980e-01 3.5715940655845199e-02  0.0000000000000000e+00 9.2601568212714558e-01 3.4294277539858989e-02  0.0000000000000000e+00 9.2242163442650260e-01 3.2873680343308037e-02  0.0000000000000000e+00 9.1839563172643823e-01 3.1464196055967925e-02  0.0000000000000000e+00 9.1391858812727533e-01 3.0091705235771857e-02  0.0000000000000000e+00 9.0905711390292165e-01 2.8789453931317727e-02  0.0000000000000000e+00 9.0382182284665891e-01 2.7571144220047944e-02  0.0000000000000000e+00 8.9812272517488823e-01 2.6407426136031385e-02  0.0000000000000000e+00 8.9186454637921142e-01 2.5272748221206034e-02  0.0000000000000000e+00 8.8498766535888151e-01 2.4163344719315295e-02  0.0000000000000000e+00 8.7747751807167307e-01 2.3086652082108351e-02  0.0000000000000000e+00 8.6946876736336576e-01 2.2072125229555230e-02  0.0000000000000000e+00 8.6101550732088450e-01 2.1120916571494886e-02  0.0000000000000000e+00 8.5225286882785900e-01 2.0256922860856910e-02  0.0000000000000000e+00 8.3185393001352081e-01 1.8541405226920746e-02  0.0000000000000000e+00 8.2075542465661655e-01 1.7741047445024898e-02  0.0000000000000000e+00 8.0932566736953293e-01 1.7016869555416266e-02  0.0000000000000000e+00 7.9729437902251510e-01 1.6325581326593480e-02  0.0000000000000000e+00 7.8466544879292011e-01 1.5674024475175987e-02  0.0000000000000000e+00 7.7121369803289919e-01 1.5033651144129780e-02  0.0000000000000000e+00 7.5719837100727516e-01 1.4430430946375670e-02  0.0000000000000000e+00 7.4286511221728291e-01 1.3873760734659632e-02  0.0000000000000000e+00 7.2829183152815069e-01 1.3361951058560230e-02  0.0000000000000000e+00 7.1331852142567664e-01 1.2882875476668072e-02  0.0000000000000000e+00 6.9768559128957863e-01 1.2418468429385607e-02  0.0000000000000000e+00 6.8161672548601560e-01 1.1977643429260439e-02  0.0000000000000000e+00 6.6530821080877478e-01 1.1566140036180294e-02  0.0000000000000000e+00 6.4912564672992512e-01 1.1194101760692386e-02  0.0000000000000000e+00 6.3299498405715593e-01 1.0853826821621537e-02  0.0000000000000000e+00 6.1667399943767731e-01 1.0534706355979320e-02  0.0000000000000000e+00 5.9999642934727038e-01 1.0227487793478856e-02  0.0000000000000000e+00 5.8318084468234055e-01 9.9380928280362220e-03  0.0000000000000000e+00 5.6661717349759178e-01 9.6746248895402571e-03  0.0000000000000000e+00 5.5053729370634030e-01 9.4393929306306294e-03  0.0000000000000000e+00 5.3477555204249771e-01 9.2260449757931590e-03  0.0000000000000000e+00 5.1921282634894705e-01 9.0301390710734661e-03  0.0000000000000000e+00 5.0351658425184564e-01 8.8429176447521844e-03  0.0000000000000000e+00 4.8798581661935231e-01 8.6682141422109015e-03  0.0000000000000000e+00 4.7290034351376675e-01 8.5107959254853514e-03  0.0000000000000000e+00 4.5856022602615149e-01 8.3743237262790034e-03  0.0000000000000000e+00 4.4494860416324350e-01 8.2568397510844865e-03  0.0000000000000000e+00 4.3179468895753770e-01 8.1527899595890616e-03  0.0000000000000000e+00 4.1883267038064087e-01 8.0558429807252533e-03  0.0000000000000000e+00 4.0597819955587977e-01 7.9662908284246266e-03  0.0000000000000000e+00 3.9343868360534129e-01 7.8854595434848483e-03  0.0000000000000000e+00 3.8150695725156469e-01 7.8166104317125094e-03  0.0000000000000000e+00 3.7034328393342286e-01 7.7611964776929474e-03  0.0000000000000000e+00 3.6005586691123481e-01 7.7180034600021364e-03  0.0000000000000000e+00 3.5051980643217162e-01 7.6845683999165011e-03  0.0000000000000000e+00 3.4124606658549006e-01 7.6558806352761011e-03  0.0000000000000000e+00 3.3220755803033253e-01 7.6320414235272211e-03  0.0000000000000000e+00 3.2356244702443182e-01 7.6137005018451845e-03  0.0000000000000000e+00 3.1507406758712886e-01 7.5988053237225290e-03  0.0000000000000000e+00 3.0693447631599075e-01 7.5893218666855137e-03  0.0000000000000000e+00 2.9962314563816977e-01 7.5861331785869743e-03  0.0000000000000000e+00 2.9291576556818866e-01 7.5896404591053058e-03  0.0000000000000000e+00 2.8687128280804786e-01 7.5961440916118405e-03  0.0000000000000000e+00 2.8136814781593639e-01 7.6057546793307394e-03  0.0000000000000000e+00 2.7635800694129603e-01 7.6169347882159488e-03  0.0000000000000000e+00 2.7172813534309920e-01 7.6293279952842101e-03  0.0000000000000000e+00 2.6745200934459634e-01 7.6423062417985271e-03  0.0000000000000000e+00 2.6350867894960056e-01 7.6556351075388251e-03  0.0000000000000000e+00 2.5980899600765334e-01 7.6691278295384410e-03  0.0000000000000000e+00 2.5636353645410093e-01 7.6822197323544008e-03  0.0000000000000000e+00 2.5326688673007547e-01 7.6950995613836101e-03  0.0000000000000000e+00 2.5053961159073029e-01 7.7076113105998718e-03  0.0000000000000000e+00 2.4820085162179498e-01 7.7199116402307160e-03  0.0000000000000000e+00 2.4612910196553253e-01 7.7312562970262852e-03  0.0000000000000000e+00 2.4446157558166506e-01 7.7406274805868255e-03  0.0000000000000000e+00 2.4312205191486366e-01 7.7482045423843638e-03  0.0000000000000000e+00 2.4175778532000855e-01 7.7577109520439273e-03  0.0000000000000000e+00 2.4085092376336567e-01 7.7605952616826793e-03  0.0000000000000000e+00 2.4126675802422357e-01 7.7599634664734718e-03  0.0000000000000000e+00 2.4162660776165160e-01 7.7576466894658204e-03  0.0000000000000000e+00 2.4226055896800389e-01 7.7535223168375064e-03  0.0000000000000000e+00 2.4328161758046835e-01 7.7478758975879254e-03  0.0000000000000000e+00 2.4467759059629424e-01 7.7401837064741243e-03  0.0000000000000000e+00 2.4630716558791199e-01 7.7311364148955801e-03  0.0000000000000000e+00 2.4827349025464343e-01 7.7207155186394183e-03  0.0000000000000000e+00 2.5015202224230576e-01 7.7099084150573163e-03  0.0000000000000000e+00 2.5288925877130031e-01 7.6977611488501761e-03  0.0000000000000000e+00 2.5571294741828526e-01 7.6856707832158458e-03  0.0000000000000000e+00 2.5875211586098013e-01 7.6737268745075259e-03  0.0000000000000000e+00 2.6186560613005744e-01 7.6608993139818133e-03  0.0000000000000000e+00 2.6525422182378333e-01 7.6484628327107137e-03  0.0000000000000000e+00 2.6898875659440563e-01 7.6369136792476481e-03  0.0000000000000000e+00 2.7282411990034960e-01 7.6256508444682812e-03  0.0000000000000000e+00 2.7685811299515217e-01 7.6144925408376234e-03  0.0000000000000000e+00 2.8113449493994069e-01 7.6041685691963295e-03  0.0000000000000000e+00 2.8573135146333978e-01 7.5955120316924226e-03  0.0000000000000000e+00 2.9076005457556464e-01 7.5891561406053768e-03  0.0000000000000000e+00 2.9622910580610645e-01 7.5853079133431098e-03  0.0000000000000000e+00 3.0206719647972130e-01 7.5842015908218364e-03  0.0000000000000000e+00 3.0830395329254623e-01 7.5869490320730664e-03  0.0000000000000000e+00 3.1492130532924062e-01 7.5937839458915550e-03  0.0000000000000000e+00 3.2181254979039298e-01 7.6045420987065748e-03  0.0000000000000000e+00 3.2888439874037434e-01 7.6187043721944615e-03  0.0000000000000000e+00 3.3603258787803381e-01 7.6357354227205810e-03  0.0000000000000000e+00 3.4323814184853030e-01 7.6552076595272286e-03  0.0000000000000000e+00 3.5052557639667464e-01 7.6772929412428229e-03  0.0000000000000000e+00 3.5799520969694176e-01 7.7026418012128848e-03  0.0000000000000000e+00 3.6574961300861492e-01 7.7321008796194350e-03  0.0000000000000000e+00 3.7396512598004178e-01 7.7678454308423529e-03  0.0000000000000000e+00 3.8273304187930285e-01 7.8120552723193095e-03  0.0000000000000000e+00 3.9210536081899661e-01 7.8651416703274211e-03  0.0000000000000000e+00 4.0186021577507225e-01 7.9259286192444288e-03  0.0000000000000000e+00 4.1180996386421881e-01 7.9927225642463812e-03  0.0000000000000000e+00 4.2176127944012820e-01 8.0629441301048963e-03  0.0000000000000000e+00 4.3164880170529302e-01 8.1360138662411544e-03  0.0000000000000000e+00 4.4151336949805881e-01 8.2128700215190701e-03  0.0000000000000000e+00 4.5177050632778704e-01 8.2975511577914156e-03  0.0000000000000000e+00 4.6241404386384022e-01 8.3917272562484945e-03  0.0000000000000000e+00 4.7347323947512826e-01 8.4972723459383979e-03  0.0000000000000000e+00 4.8523269664991830e-01 8.6173294232629923e-03  0.0000000000000000e+00 4.9749442882179562e-01 8.7523104983943563e-03  0.0000000000000000e+00 5.0990281885127087e-01 8.8962396762071877e-03  0.0000000000000000e+00 5.2196182167782035e-01 9.0412200672475174e-03  0.0000000000000000e+00 5.3428588074052052e-01 9.1972023126266900e-03  0.0000000000000000e+00 5.4651358903099212e-01 9.3589943189489808e-03  0.0000000000000000e+00 5.5914376063505722e-01 9.5353609665675201e-03  0.0000000000000000e+00 5.7223393913815157e-01 9.7346416182011418e-03  0.0000000000000000e+00 5.8596085458896019e-01 9.9564598331101217e-03  0.0000000000000000e+00 6.0000741414270176e-01 1.0199880978231863e-02  0.0000000000000000e+00 6.1393152353274671e-01 1.0454766014103474e-02  0.0000000000000000e+00 6.2757431318459167e-01 1.0716571738683496e-02  0.0000000000000000e+00 6.4110566517509426e-01 1.0991147380210262e-02  0.0000000000000000e+00 6.6897990601152102e-01 1.1624846983184218e-02  0.0000000000000000e+00 6.8336779933894509e-01 1.1992881560371755e-02  0.0000000000000000e+00 6.9770696999422632e-01 1.2389452927699223e-02  0.0000000000000000e+00 7.1169274163901852e-01 1.2801326879423312e-02  0.0000000000000000e+00 7.2528778411727590e-01 1.3230739137632137e-02  0.0000000000000000e+00 7.3871060021076118e-01 1.3690573128103817e-02  0.0000000000000000e+00 7.5216654094702728e-01 1.4197503501833231e-02  0.0000000000000000e+00 7.6562650566997414e-01 1.4756697893907928e-02  0.0000000000000000e+00 7.7881686408644746e-01 1.5358516048657301e-02  0.0000000000000000e+00 7.9146591523106902e-01 1.5989173041797023e-02  0.0000000000000000e+00 8.0353577189697645e-01 1.6649126767123618e-02  0.0000000000000000e+00 8.1518017934336906e-01 1.7352300957588371e-02  0.0000000000000000e+00 8.2652214937393975e-01 1.8122082661841121e-02  0.0000000000000000e+00 8.3752794277556275e-01 1.8962444242989516e-02  0.0000000000000000e+00 8.4793781973881455e-01 1.9848630385008528e-02  0.0000000000000000e+00 8.5768172435078138e-01 2.0775464678307810e-02  0.0000000000000000e+00 8.6684188005376439e-01 2.1755281200831082e-02  0.0000000000000000e+00 8.7548102294959895e-01 2.2805690114115439e-02  0.0000000000000000e+00 8.8367514361430555e-01 2.3953711672829180e-02  0.0000000000000000e+00 8.9127873868887020e-01 2.5164798584133525e-02  0.0000000000000000e+00 8.9823592411865172e-01 2.6426124598630016e-02  0.0000000000000000e+00 9.0457989866098654e-01 2.7740631761067103e-02  0.0000000000000000e+00 9.1042644902308878e-01 2.9144036258616852e-02  0.0000000000000000e+00 9.1581865970065779e-01 3.0660980603185419e-02  0.0000000000000000e+00 9.2070073605187486e-01 3.2262080211049406e-02  0.0000000000000000e+00 9.2503619260631842e-01 3.3909215026405405e-02  0.0000000000000000e+00 9.2888432709946345e-01 3.5606233982948134e-02  0.0000000000000000e+00 9.3228911775591561e-01 3.7385181859316878e-02  0.0000000000000000e+00 9.3532771210149546e-01 3.9295775504090830e-02  0.0000000000000000e+00 9.3798283039921226e-01 4.1293002754495434e-02  0.0000000000000000e+00 9.4025191344313819e-01 4.3329247276799709e-02  0.0000000000000000e+00 9.4216215387212277e-01 4.5386272489352709e-02  0.0000000000000000e+00 9.4376242460086590e-01 4.7491362208071639e-02  0.0000000000000000e+00 9.4509138467879428e-01 4.9704353970709790e-02  0.0000000000000000e+00 9.4616886466971872e-01 5.2032000116662230e-02  0.0000000000000000e+00 9.4700093822389597e-01 5.4389392931865531e-02  0.0000000000000000e+00 9.4761344406514270e-01 5.6722628282195167e-02  0.0000000000000000e+00 9.4804229131749007e-01 5.9036784671666467e-02  0.0000000000000000e+00 9.4830317778070916e-01 6.1341619994832210e-02  0.0000000000000000e+00 9.4840782222995601e-01 6.3698993830428013e-02  0.0000000000000000e+00 9.4837206924167583e-01 6.6134136028167298e-02  0.0000000000000000e+00 9.4821463135655149e-01 6.8592941549772149e-02  0.0000000000000000e+00 9.4795945494752487e-01 7.1016937298456775e-02  0.0000000000000000e+00 9.4764692615175861e-01 7.3299515067542731e-02  0.0000000000000000e+00 9.4728844697346704e-01 7.5459216836168741e-02  0.0000000000000000e+00 9.4689914101398032e-01 7.7489618467893956e-02  0.0000000000000000e+00 9.4648786242528482e-01 7.9415047829302421e-02  0.0000000000000000e+00 9.4605187200208840e-01 8.1278004957130917e-02  0.0000000000000000e+00 9.4559002684063531e-01 8.3088263221091280e-02  0.0000000000000000e+00 9.4510964997397851e-01 8.4850378230593410e-02  0.0000000000000000e+00 9.4462271039980927e-01 8.6552131372072447e-02  0.0000000000000000e+00 9.4415457780339129e-01 8.8121959456451793e-02  0.0000000000000000e+00 9.4371886690579254e-01 8.9534207973147831e-02  0.0000000000000000e+00 9.4332499200308451e-01 9.0780095746315084e-02  0.0000000000000000e+00 9.4298332543904362e-01 9.1841079998276010e-02  0.0000000000000000e+00 9.4270020319969738e-01 9.2705390774750027e-02  0.0000000000000000e+00 9.4811059232039063e-01 6.9648162042963438e-02  0.0000000000000000e+00 4.6745486045821555e-01 8.4427564988332812e-03  0.0000000000000000e+00 9.4774058666195504e-01 5.7146723632737630e-02  0.0000000000000000e+00 6.4896588775647157e-01 1.1164427677577022e-02  0.0000000000000000e+00 9.4269179849871376e-01 9.2725861559997430e-02  0.0000000000000000e+00 2.8574684734179984e-01 7.6036564380245987e-03  0.0000000000000000e+00 9.2743961107907069e-01 3.4918591594643382e-02  0.0000000000000000e+00 8.3700194639490533e-01 1.8947851098354323e-02  0.0000000000000000e+00 2.4389417912053149e-01 7.7537272443766753e-03  0.0000000000000000e+00 4.1332344068538474e-01 8.0194709942196241e-03  0.0000000000000000e+00 9.4435573319741917e-01 4.8428546837048690e-02  0.0000000000000000e+00 3.6344068747303870e-01 7.7277463380719322e-03  0.0000000000000000e+00 3.5537172207433454e-01 7.7041649358907090e-03  0.0000000000000000e+00 9.3065569300434170e-01 3.6499883587456296e-02  0.0000000000000000e+00 5.1174736080907690e-01 8.9418546599790132e-03  0.0000000000000000e+00 9.4823666222682268e-01 6.8613200203754415e-02  0.0000000000000000e+00 3.1295637562315026e-01 7.5970525591561311e-03  0.0000000000000000e+00 2.7640193283469688e-01 7.6216190297719562e-03  0.0000000000000000e+00 9.4624999208030103e-01 8.0484799984981842e-02  0.0000000000000000e+00 8.9522866604454165e-01 2.5867534945287967e-02  0.0000000000000000e+00 6.0811754255844519e-01 1.0376233930507005e-02  0.0000000000000000e+00 8.3222175004760834e-01 1.8547359421581658e-02  0.0000000000000000e+00 9.4464268093018700e-01 8.6497913180282007e-02  0.0000000000000000e+00 2.5649221785970361e-01 7.6901622431925299e-03  0.0000000000000000e+00 7.0379560132352181e-01 1.2597806810654691e-02  0.0000000000000000e+00 7.7289829579258074e-01 1.5087145060134095e-02  0.0000000000000000e+00 9.4288976776083289e-01 9.2129380248117954e-02  0.0000000000000000e+00 9.4587825622929100e-01 8.1961656449346609e-02  0.0000000000000000e+00 5.4165355199393017e-01 9.2976757165820576e-03  0.0000000000000000e+00 2.5985062336135378e-01 7.6757665611069462e-03  0.0000000000000000e+00 9.0077361452731775e-01 2.6935795167401324e-02  0.0000000000000000e+00 9.4311036768199008e-01 4.6512156844493974e-02  0.0000000000000000e+00 2.4577830608800480e-01 7.7413984539060048e-03  0.0000000000000000e+00 7.6307212222866150e-01 1.4677982605268867e-02  0.0000000000000000e+00 7.1921688027377773e-01 1.3038978060728975e-02  0.0000000000000000e+00 9.4226693457398047e-01 9.4000467600306448e-02  0.0000000000000000e+00 3.2089903044792639e-01 7.6127637711005513e-03  0.0000000000000000e+00 4.1824088947910842e-01 8.0416615553009271e-03  0.0000000000000000e+00 9.4402111596099936e-01 8.8551828660758725e-02  0.0000000000000000e+00 9.4816733926368058e-01 5.9991683287697821e-02  0.0000000000000000e+00 5.9589220287190436e-01 1.0131732209644166e-02  0.0000000000000000e+00 2.4922927750671442e-01 7.7236049119374789e-03  0.0000000000000000e+00 8.7411667101473656e-01 2.2651219203578200e-02  0.0000000000000000e+00 9.4754456647539198e-01 7.4047520701408617e-02  0.0000000000000000e+00 9.1596443068717459e-01 3.0701768113424899e-02  0.0000000000000000e+00 2.4310371661746064e-01 7.7565605795786039e-03  0.0000000000000000e+00 2.7120721050691088e-01 7.6364200239279730e-03  0.0000000000000000e+00 8.0297202900683973e-01 1.6644390734500390e-02  0.0000000000000000e+00 4.5198511107118916e-01 8.3185555819551577e-03  0.0000000000000000e+00 9.4712788666362757e-01 7.6307980710368456e-02  0.0000000000000000e+00 9.4600671357273369e-01 5.1530858516052817e-02  0.0000000000000000e+00 9.1850085124062764e-01 3.1515692558529491e-02  0.0000000000000000e+00 2.9527316463703801e-01 7.5921126760959377e-03  0.0000000000000000e+00 8.7179872503578193e-01 2.2342680588106009e-02  0.0000000000000000e+00 5.0514853776078650e-01 8.8444348663426174e-03  0.0000000000000000e+00 9.3789911167032591e-01 4.1182526330636057e-02  0.0000000000