<?xml version="1.0"?>
<VTKFile type="UnstructuredGrid"  version="0.1"  >
<UnstructuredGrid>
<Piece  NumberOfPoints="4940" NumberOfCells="9650">
<Points>
<DataArray  type="Float64"  NumberOfComponents="3"  format="ascii">500 250 0  0 250 0  250 500 0  250 0 0  256.8885856082646 499.9050767557906 0  263.7719401218049 499.6203791065173 0  270.6448364229772 499.1461232471188 0  277.5020553257866 498.4826693209355 0  284.3383895508592 497.6305211460281 0  291.1486476865662 496.5903258312597 0  297.9276581259182 495.3628732847843 0  304.6702729675493 493.9490956196674 0  311.3713719748657 492.3500664368026 0  318.0258664141369 490.5670000199653 0  324.6287029687753 488.6012504015818 0  331.1748675330201 486.4543103455647 0  337.6593890460416 484.1278102064655 0  344.0773432429536 481.6235166997244 0  350.4238564271474 478.9433315480048 0  356.694109139292 476.0892900492477 0  362.88333985546 473.0635595140469 0  368.9868485575419 469.8684376402048 0  375.0000003153078 466.5063507640667 0  380.9182288257928 462.9798520074548 0  386.7370398729688 459.2916193419558 0  392.4520147244077 455.444453565817 0  398.0588135356345 451.4412761437442 0  403.5531785622926 447.285127045646 0  408.9309374414144 442.9791624087773 0  414.1880064015299 438.5266521049243 0  419.3203932989752 433.9309773069245 0  424.324200661095 429.1956279150535 0  429.1956286596235 424.3241998957182 0  433.9309780058756 419.3203925397119 0  438.5266527445345 414.1880056671062 0  442.9791630130591 408.9309367076756 0  447.2851276060475 403.5531778422888 0  451.4412766621026 398.0588128303826 0  455.4444540361634 392.4520140460735 0  459.2916197786263 386.7370392045948 0  462.9798524073514 380.9182281752347 0  466.5063511234856 374.9999996927758 0  469.8684379657123 368.9868479560565 0  473.0635598144817 362.8833392617846 0  476.0892903190255 356.6941085676214 0  478.9433317963513 350.4238558609745 0  481.6235169154735 344.0773427117675 0  484.12781039012 337.6593885555221 0  486.4543105028062 331.1748670749914 0  488.601250531677 324.6287025528375 0  490.5670001317469 318.0258660188321 0  492.3500665291326 311.3713716102628 0  493.949095695951 304.6702726271575 0  495.3628733416623 297.9276578347343 0  496.5903258712341 291.1486474470129 0  497.6305211749058 284.3383893426084 0  498.4826693388848 277.502055163614 0  499.1461232580606 270.6448362909296 0  499.6203791109319 263.7719400417897 0  499.9050767571306 256.8885855596534 0  499.9050767559877 243.1114143988867 0  499.6203791069493 236.2280598860241 0  499.1461232485393 229.3551635941651 0  498.4826693235677 222.4979446979962 0  497.6305211491849 215.6616104719064 0  496.5903258357701 208.8513523404629 0  495.3628732906988 202.0723419043604 0  493.9490956264813 195.3297270628552 0  492.3500664487791 188.6286280724281 0  490.5670000344809 181.9741336371959 0  488.6012504175981 175.3712970824318 0  486.4543103623226 168.8251325157939 0  484.1278102222298 162.3406109960628 0  481.6235167152198 155.9226567951971 0  478.9433315621651 149.5761436051346 0  476.0892900516498 143.3058908657982 0  473.063559513628 137.1166601437124 0  469.8684376406648 131.0131514433083 0  466.5063507675389 124.9999996907064 0  462.9798520124137 119.0817711822745 0  459.2916193464549 113.2629601339176 0  455.4444535642773 107.5479852733717 0  451.4412761528674 101.9411864767781 0  447.2851270583545 96.44682145403524 0  442.9791624165781 91.06906256805769 0  438.5266521117469 85.81199360630404 0  433.9309773156125 80.67960671046254 0  429.1956279150353 75.67579933888632 0  424.3241998888952 70.80437133373906 0  419.3203925223282 66.06902197812161 0  414.1880056411937 61.47334723289828 0  408.9309366751728 57.0208369601728 0  403.5531778009394 52.71487236176898 0  398.058812796452 48.55872331295853 0  392.4520140187753 44.55554594490843 0  386.7370391799677 40.70838020528396 0  380.9182281475119 37.02014757560744 0  374.9999996718656 33.49364886444181 0  368.9868479340393 30.13156202237255 0  362.8833392380029 26.93644017348339 0  356.6941085456942 23.91070967062674 0  350.4238558420009 21.0566681953261 0  344.0773426899492 18.37648307566465 0  337.6593885328982 15.87218960140942 0  331.1748670549786 13.54568949032341 0  324.6287025315056 11.39874946165088 0  318.0258660010876 9.432999863235466 0  311.3713716017894 7.649933468721599 0  304.6702726190621 6.050904302234756 0  297.9276578269805 4.637126656823085 0  291.148647441857 3.409674127905504 0  284.3383893425031 2.369478825079682 0  277.502055159398 1.517330660648639 0  270.6448362875833 0.853876741662134 0  263.7719400401456 0.3796208889774277 0  256.8885855592052 0.09492324285704967 0  243.1114143979462 0.09492324403817065 0  236.2280598850882 0.3796208931023841 0  229.3551635938215 0.8538767514891958 0  222.4979446968584 1.517330676558146 0  215.6616104703111 2.369478851036291 0  208.8513523382973 3.409674164591252 0  202.0723419066374 4.637126708856528 0  195.3297270659513 6.050904372824903 0  188.628628074828 7.649933550613184 0  181.9741336377093 9.432999965373938 0  175.3712970793675 11.39874958336037 0  168.8251325057572 13.54568964112298 0  162.340610986655 15.87218978129263 0  155.9226567874317 18.37648328793418 0  149.576143602509 21.05666843898663 0  143.3058908718157 23.91070994551046 0  137.1166601505524 26.93644048291054 0  131.0131514451933 30.13156235831508 0  124.9999996848412 33.49364923584736 0  119.0817711715717 37.0201479941652 0  113.2629601211624 40.70838066187849 0  107.5479852622251 44.55554644345162 0  101.9411864693332 48.55872385260452 0  96.44682143286516 52.71487295812284 0  91.06906254351222 57.02083760363669 0  85.81199358272519 61.4733479087879 0  80.67960667988106 66.06902271253972 0  75.67579930062769 70.80437212218331 0  70.80437129287643 75.67580015310926 0  66.06902193673014 80.67960752263491 0  61.47334718684866 85.81199441168215 0  57.02083692524275 91.0690633672404 0  52.71487232786438 96.44682224262129 0  48.55872328070024 101.941187247437 0  44.55554591578033 107.5479860232332 0  40.7083801742321 113.2629608675606 0  37.02014754791168 119.0817718975441 0  33.49364883372994 125.000000381329 0  30.13156199866361 131.0131521097709 0  26.9364401549829 137.1166607985551 0  23.91070965524918 143.3058914868915 0  21.05666818346614 149.576144185037 0  18.37648306853811 155.9226573275967 0  15.8721895918909 162.3406114925245 0  13.54568948170046 168.8251329701392 0  11.39874945301878 175.3712974960928 0  9.432999857087736 181.9741340206533 0  7.649933466342702 188.6286284076045 0  6.050904301250966 195.3297273853278 0  4.637126656808988 202.0723421730917 0  3.409674127767772 208.8513525589684 0  2.369478824521138 215.6616106615248 0  1.517330660909465 222.4979448382452 0  0.8538767414496533 229.355163714981 0  0.3796208887135322 236.2280599646376 0  0.09492324266324204 243.1114144478261 0  0.0949232442452228 256.8885856095658 0  0.3796208935834784 263.7719401236316 0  0.8538767530323526 270.6448364248016 0  1.517330679476544 277.5020553295092 0  2.369478854618649 284.3383895555228 0  3.409674170191892 291.1486476952655 0  4.6371267162381 297.9276581311522 0  6.050904381420935 304.6702729724059 0  7.649933562385399 311.3713719716595 0  9.43299997979841 318.0258664133013 0  11.3987495994252 324.6287029719946 0  13.54568965885832 331.174867545904 0  15.87218979367188 337.6593890464085 0  18.37648329843151 344.0773432384132 0  21.05666844777872 350.423856417535 0  23.91070995156048 356.6941091410045 0  26.93644048988043 362.8833398632205 0  30.13156235982007 368.9868485575877 0  33.49364924138357 375.0000003247478 0  37.0201480006036 380.9182288389023 0  40.70838066758398 386.7370398875706 0  44.55554644477201 392.4520147396792 0  48.55872386086904 398.0588135419111 0  52.71487295981296 403.5531785693063 0  57.02083760525949 408.9309374584583 0  61.47334790862246 414.1880064170849 0  66.06902271205095 419.320393319588 0  70.80437211216579 424.3242006890749 0  75.67580013809859 429.195628692521 0  80.6796075127923 433.930978054209 0  85.81199439754931 438.5266528008431 0  91.06906334717917 442.9791630582355 0  96.44682221438322 447.2851276501571 0  101.9411872243843 451.441276702356 0  107.5479859945825 455.4444540643537 0  113.2629608446994 459.2916198108319 0  119.0817718768376 462.9798524393601 0  125.0000003647644 466.5063511567065 0  131.0131521012763 469.8684379967393 0  137.1166607840049 473.0635598376539 0  143.3058914748804 476.0892903390826 0  149.5761441732679 478.9433318113714 0  155.9226573130112 481.6235169255377 0  162.3406114779862 484.1278104026658 0  168.8251329570439 486.4543105138039 0  175.3712974805475 488.601250542119 0  181.9741340135204 490.5670001408953 0  188.6286284005059 492.3500665318597 0  195.3297273788229 493.9490956972913 0  202.0723421640089 495.3628733414168 0  208.8513525529672 496.5903258712308 0  215.6616106544547 497.6305211744985 0  222.4979448327038 498.4826693384772 0  229.3551637102845 499.1461232581612 0  236.2280599621369 499.6203791111485 0  243.1114144470173 499.9050767573145 0  155.2373389820306 474.8197567317462 0  25.36256300907667 153.9152755065208 0  432.3709625126712 412.6214396304305 0  6.013151705810699 246.637913163471 0  246.6379131630491 493.986848294322 0  338.6995838441862 22.68244767887072 0  477.3175523131281 338.6995838660569 0  493.9868482700757 246.6379131399102 0  246.6201155078769 6.218451882810491 0  417.6179310263282 72.7156044707053 0  102.2232990934413 445.0100869616822 0  63.66330858966404 92.20354579482142 0  391.3105220491464 50.73522820883105 0  72.79295043967942 418.0702734974704 0  448.290574428537 108.25674339002 0  402.4604651193511 440.7462829841712 0  97.55317348421397 59.11376320116034 0  136.7376477664901 33.58246472647134 0  363.3288394375288 465.6947312928271 0  44.0678766556007 381.0860953771871 0  469.6905266180034 142.3890690100806 0  22.68244791668644 338.6995843487432 0  338.699584349159 477.317552078365 0  173.389488083762 18.6681884918202 0  483.4809734778481 179.7121987795732 0  13.50237455842738 306.4709525540879 0  305.9825168523021 487.24416992
[...]
<PointData  Vectors="f_12"> 
<DataArray  type="Float64"  Name="f_12"  NumberOfComponents="3" format="ascii">0.0000000000000000e+00 9.1940294794261357e-01 3.1829944994140456e-02  0.0000000000000000e+00 8.1306543470149850e-01 1.7173323939785115e-02  0.0000000000000000e+00 9.1424211493100982e-01 1.5836489686392549e-01  0.0000000000000000e+00 3.9819255451021035e-01 7.8764082224792569e-03  0.0000000000000000e+00 9.1381842501005917e-01 1.5923181552472099e-01  0.0000000000000000e+00 9.1356199109998537e-01 1.5975563443962609e-01  0.0000000000000000e+00 9.1341781522704002e-01 1.6005010725674165e-01  0.0000000000000000e+00 9.1342342119677189e-01 1.6003854792428482e-01  0.0000000000000000e+00 9.1355897478036652e-01 1.5976181982492110e-01  0.0000000000000000e+00 9.1382654147605158e-01 1.5921544880173769e-01  0.0000000000000000e+00 9.1422309467403950e-01 1.5840470711424812e-01  0.0000000000000000e+00 9.1473995802399255e-01 1.5734614590247914e-01  0.0000000000000000e+00 9.1537708580511479e-01 1.5603843090672598e-01  0.0000000000000000e+00 9.1613539264393407e-01 1.5447760693587420e-01  0.0000000000000000e+00 9.1703448579624058e-01 1.5262078168074253e-01  0.0000000000000000e+00 9.1797048516555180e-01 1.5068110657591594e-01  0.0000000000000000e+00 9.1906827871625707e-01 1.4839421983510850e-01  0.0000000000000000e+00 9.2017888524795843e-01 1.4606780683428264e-01  0.0000000000000000e+00 9.2134741921823271e-01 1.4360537710437754e-01  0.0000000000000000e+00 9.2254323096257751e-01 1.4106873935521277e-01  0.0000000000000000e+00 9.2373967493809284e-01 1.3851044709413263e-01  0.0000000000000000e+00 9.2495591009785172e-01 1.3588520979508825e-01  0.0000000000000000e+00 9.2617874151718782e-01 1.3322105632226258e-01  0.0000000000000000e+00 9.2739817568130423e-01 1.3053736429207419e-01  0.0000000000000000e+00 9.2865309956644726e-01 1.2774545080898494e-01  0.0000000000000000e+00 9.2996951907588832e-01 1.2478098667924198e-01  0.0000000000000000e+00 9.3135515218051990e-01 1.2162107995678861e-01  0.0000000000000000e+00 9.3275759863542362e-01 1.1837534258398705e-01  0.0000000000000000e+00 9.3417149781726760e-01 1.1504525340581008e-01  0.0000000000000000e+00 9.3558372281428148e-01 1.1165098784183056e-01  0.0000000000000000e+00 9.3691609149450872e-01 1.0836799014157968e-01  0.0000000000000000e+00 9.3817132415174176e-01 1.0518223649954656e-01  0.0000000000000000e+00 9.3935317778789984e-01 1.0208363191010526e-01  0.0000000000000000e+00 9.4048014253495549e-01 9.9022806563715329e-02  0.0000000000000000e+00 9.4159312037785958e-01 9.5877910678598147e-02  0.0000000000000000e+00 9.4268340137694040e-01 9.2660196953739338e-02  0.0000000000000000e+00 9.4373430481566256e-01 8.9398418433974100e-02  0.0000000000000000e+00 9.4472109889781564e-01 8.6127034664674987e-02  0.0000000000000000e+00 9.4559991883733585e-01 8.2947273993499826e-02  0.0000000000000000e+00 9.4634346996805740e-01 7.9942037949279898e-02  0.0000000000000000e+00 9.4696253736848413e-01 7.7068344504807512e-02  0.0000000000000000e+00 9.4748509480845822e-01 7.4200047145977305e-02  0.0000000000000000e+00 9.4791408064197535e-01 7.1288716528618817e-02  0.0000000000000000e+00 9.4822045079704054e-01 6.8391113991345689e-02  0.0000000000000000e+00 9.4838095273604406e-01 6.5548154281000429e-02  0.0000000000000000e+00 9.4837646208368276e-01 6.2827216884048229e-02  0.0000000000000000e+00 9.4819327783909446e-01 6.0259270625618207e-02  0.0000000000000000e+00 9.4782949466750765e-01 5.7801065596958981e-02  0.0000000000000000e+00 9.4727127196392846e-01 5.5339038261725523e-02  0.0000000000000000e+00 9.4650903477612747e-01 5.2898160488774194e-02  0.0000000000000000e+00 9.4551237058086091e-01 5.0525016509863581e-02  0.0000000000000000e+00 9.4428323007666903e-01 4.8274108788062285e-02  0.0000000000000000e+00 9.4280898942381708e-01 4.6160672658253347e-02  0.0000000000000000e+00 9.4106290422151795e-01 4.4131858354819281e-02  0.0000000000000000e+00 9.3901302076858240e-01 4.2148307255629631e-02  0.0000000000000000e+00 9.3662825570500552e-01 4.0208942115952225e-02  0.0000000000000000e+00 9.3388856079396831e-01 3.8330040210638648e-02  0.0000000000000000e+00 9.3082036881579000e-01 3.6556616592507037e-02  0.0000000000000000e+00 9.2743337676750603e-01 3.4890377961634869e-02  0.0000000000000000e+00 9.2376999486196365e-01 3.3361352710307379e-02  0.0000000000000000e+00 9.1472588796881493e-01 3.0323668032344046e-02  0.0000000000000000e+00 9.0956331285902758e-01 2.8906574591516878e-02  0.0000000000000000e+00 9.0404750289911007e-01 2.7615794033407845e-02  0.0000000000000000e+00 8.9804231416508440e-01 2.6379475875397271e-02  0.0000000000000000e+00 8.9151732543699924e-01 2.5203082003674191e-02  0.0000000000000000e+00 8.8436227335371831e-01 2.4049240841485030e-02  0.0000000000000000e+00 8.7666897126432686e-01 2.2958700250136799e-02  0.0000000000000000e+00 8.6854710899655851e-01 2.1948333472188445e-02  0.0000000000000000e+00 8.6000688351097376e-01 2.1010954835230810e-02  0.0000000000000000e+00 8.5093399398159419e-01 2.0124644482000364e-02  0.0000000000000000e+00 8.4116210764431243e-01 1.9262463902561405e-02  0.0000000000000000e+00 8.3081293674712664e-01 1.8440754821127912e-02  0.0000000000000000e+00 8.1999267808413878e-01 1.7670469556528144e-02  0.0000000000000000e+00 8.0890331772147817e-01 1.6966332240444360e-02  0.0000000000000000e+00 7.9747844521987277e-01 1.6313197223829418e-02  0.0000000000000000e+00 7.8554273427938448e-01 1.5692347071769155e-02  0.0000000000000000e+00 7.7298373800594922e-01 1.5090981078265188e-02  0.0000000000000000e+00 7.5996191729784568e-01 1.4520388401649478e-02  0.0000000000000000e+00 7.4676725609545347e-01 1.3994462796088377e-02  0.0000000000000000e+00 7.3357295738328621e-01 1.3515690249374490e-02  0.0000000000000000e+00 7.2024205352772996e-01 1.3071696466087366e-02  0.0000000000000000e+00 7.0668366061819965e-01 1.2654387261577140e-02  0.0000000000000000e+00 6.9265419135959139e-01 1.2249817367269459e-02  0.0000000000000000e+00 6.7843547666376702e-01 1.1866731084956509e-02  0.0000000000000000e+00 6.6429454865310544e-01 1.1513374123330181e-02  0.0000000000000000e+00 6.5051678859104412e-01 1.1195575158802483e-02  0.0000000000000000e+00 6.3709941688677973e-01 1.0909015966719338e-02  0.0000000000000000e+00 6.2380602665487050e-01 1.0643002748892754e-02  0.0000000000000000e+00 6.1041200308446109e-01 1.0387460489983933e-02  0.0000000000000000e+00 5.9686854844400805e-01 1.0142038575809073e-02  0.0000000000000000e+00 5.8342096048291847e-01 9.9110292820714773e-03  0.0000000000000000e+00 5.7040113109172552e-01 9.7008371878757535e-03  0.0000000000000000e+00 5.5799381819716232e-01 9.5139626716046494e-03  0.0000000000000000e+00 5.4634228762234271e-01 9.3495525890703243e-03  0.0000000000000000e+00 5.3533508143630637e-01 9.2029981226406515e-03  0.0000000000000000e+00 5.2444516097008387e-01 9.0631795879518515e-03  0.0000000000000000e+00 5.1367706037171668e-01 8.9300518498145586e-03  0.0000000000000000e+00 5.0324677661172701e-01 8.8065893482899872e-03  0.0000000000000000e+00 4.9289588763776965e-01 8.6878819225592041e-03  0.0000000000000000e+00 4.8287269434323588e-01 8.5780847001976374e-03  0.0000000000000000e+00 4.7377068413234746e-01 8.4842087715047178e-03  0.0000000000000000e+00 4.6532721909024427e-01 8.4033627508789781e-03  0.0000000000000000e+00 4.5763155620351553e-01 8.3329400534021894e-03  0.0000000000000000e+00 4.5054694711328203e-01 8.2713083523437304e-03  0.0000000000000000e+00 4.4402771755877263e-01 8.2166324628032434e-03  0.0000000000000000e+00 4.3794700764997913e-01 8.1672122405604466e-03  0.0000000000000000e+00 4.3228644436343200e-01 8.1223287907127278e-03  0.0000000000000000e+00 4.2703256437615694e-01 8.0816202548822241e-03  0.0000000000000000e+00 4.2207813152566875e-01 8.0438414657157259e-03  0.0000000000000000e+00 4.1744519887217929e-01 8.0087368611933170e-03  0.0000000000000000e+00 4.1326658155849588e-01 7.9778704602029224e-03  0.0000000000000000e+00 4.0957350266923831e-01 7.9514820303506033e-03  0.0000000000000000e+00 4.0639780541688014e-01 7.9301163055660439e-03  0.0000000000000000e+00 4.0357893667833872e-01 7.9114218516928500e-03  0.0000000000000000e+00 4.0130545675943408e-01 7.8964421749320047e-03  0.0000000000000000e+00 3.9947705933767147e-01 7.8843612919772422e-03  0.0000000000000000e+00 3.9760852858922102e-01 7.8737698612400646e-03  0.0000000000000000e+00 3.9637406361267113e-01 7.8633764578345394e-03  0.0000000000000000e+00 3.9693941756783552e-01 7.8688111244831979e-03  0.0000000000000000e+00 3.9743342190545761e-01 7.8718606816061583e-03  0.0000000000000000e+00 3.9830295612173700e-01 7.8771219889606954e-03  0.0000000000000000e+00 3.9970031646335519e-01 7.8864612634777891e-03  0.0000000000000000e+00 4.0160756955981214e-01 7.8992591227269038e-03  0.0000000000000000e+00 4.0383123468107213e-01 7.9139626720733172e-03  0.0000000000000000e+00 4.0650854619515014e-01 7.9320493452934310e-03  0.0000000000000000e+00 4.0906625299056915e-01 7.9482701164550300e-03  0.0000000000000000e+00 4.1277491932462534e-01 7.9752606045131180e-03  0.0000000000000000e+00 4.1659058972922192e-01 8.0032070364708715e-03  0.0000000000000000e+00 4.2068599420330660e-01 8.0338752903319349e-03  0.0000000000000000e+00 4.2487007894946394e-01 8.0644583517381820e-03  0.0000000000000000e+00 4.2940345141295683e-01 8.0987761903046351e-03  0.0000000000000000e+00 4.3437165326526578e-01 8.1381645372606299e-03  0.0000000000000000e+00 4.3944580144058804e-01 8.1786329089725517e-03  0.0000000000000000e+00 4.4474811906980438e-01 8.2212623584112816e-03  0.0000000000000000e+00 4.5032496354968976e-01 8.2672642320043167e-03  0.0000000000000000e+00 4.5626684405157031e-01 8.3183626590531048e-03  0.0000000000000000e+00 4.6270210943397166e-01 8.3764607384667639e-03  0.0000000000000000e+00 4.6963320345723963e-01 8.4418254473080153e-03  0.0000000000000000e+00 4.7696126012903883e-01 8.5138004266814699e-03  0.0000000000000000e+00 4.8471675654795754e-01 8.5938718629332157e-03  0.0000000000000000e+00 4.9287265243545308e-01 8.6821585211021950e-03  0.0000000000000000e+00 5.0129412350287672e-01 8.7772706024571677e-03  0.0000000000000000e+00 5.0986326698957118e-01 8.8776416518295681e-03  0.0000000000000000e+00 5.1844767545516868e-01 8.9814389713297280e-03  0.0000000000000000e+00 5.2701423265809733e-01 9.0879295762073681e-03  0.0000000000000000e+00 5.3557807376488986e-01 9.1974677651195311e-03  0.0000000000000000e+00 5.4423972231376117e-01 9.3118009204169877e-03  0.0000000000000000e+00 5.5310083207940008e-01 9.4329655519023656e-03  0.0000000000000000e+00 5.6234514918996581e-01 9.5654883384684031e-03  0.0000000000000000e+00 5.7205872092296128e-01 9.7130058784325370e-03  0.0000000000000000e+00 5.8229226190145056e-01 9.8770627796598634e-03  0.0000000000000000e+00 5.9279636902111876e-01 1.0054295440349454e-02  0.0000000000000000e+00 6.0336857516929565e-01 1.0241059370844758e-02  0.0000000000000000e+00 6.1380008695890509e-01 1.0432348599180088e-02  0.0000000000000000e+00 6.2401139558183172e-01 1.0626636004355218e-02  0.0000000000000000e+00 6.3403018953675916e-01 1.0825060229598619e-02  0.0000000000000000e+00 6.4424469141954221e-01 1.1036814714600857e-02  0.0000000000000000e+00 6.5463486987525377e-01 1.1263852900973122e-02  0.0000000000000000e+00 6.6521358251526408e-01 1.1509234920353975e-02  0.0000000000000000e+00 6.7624598484476228e-01 1.1781201287252146e-02  0.0000000000000000e+00 6.8753867465239482e-01 1.2078882868006582e-02  0.0000000000000000e+00 6.9875838411837821e-01 1.2392130177843222e-02  0.0000000000000000e+00 7.0946501179797083e-01 1.2705334349468815e-02  0.0000000000000000e+00 7.2017600083451416e-01 1.3037312353398523e-02  0.0000000000000000e+00 7.3055686773158102e-01 1.3376599180356611e-02  0.0000000000000000e+00 7.4102096986262622e-01 1.3740736899430405e-02  0.0000000000000000e+00 7.5159391770721784e-01 1.4141020416248290e-02  0.0000000000000000e+00 7.6242546327886218e-01 1.4582571828408174e-02  0.0000000000000000e+00 7.7326035871115761e-01 1.5061433865347359e-02  0.0000000000000000e+00 7.8375832105628496e-01 1.5560662762923338e-02  0.0000000000000000e+00 7.9379855527014109e-01 1.6071243265624785e-02  0.0000000000000000e+00 8.0349578580600822e-01 1.6601784105303292e-02  0.0000000000000000e+00 8.2262512039447744e-01 1.7800472839995106e-02  0.0000000000000000e+00 8.3209923801972130e-01 1.8487639701809479e-02  0.0000000000000000e+00 8.4129808944568774e-01 1.9224637732405753e-02  0.0000000000000000e+00 8.5004047290531504e-01 1.9989854669880965e-02  0.0000000000000000e+00 8.5830135909465421e-01 2.0783287343803612e-02  0.0000000000000000e+00 8.6620946413881839e-01 2.1625330316466997e-02  0.0000000000000000e+00 8.7388953333573138e-01 2.2544289376744041e-02  0.0000000000000000e+00 8.8134260008307364e-01 2.3552506380324412e-02  0.0000000000000000e+00 8.8843888189888542e-01 2.4635989201105456e-02  0.0000000000000000e+00 8.9505002194769590e-01 2.5770833232427622e-02  0.0000000000000000e+00 9.0116236320964771e-01 2.6952685739433418e-02  0.0000000000000000e+00 9.0686455509529218e-01 2.8204227664811239e-02  0.0000000000000000e+00 9.1222375379003950e-01 2.9564703238188085e-02  0.0000000000000000e+00 9.1724561694151607e-01 3.1046446937357249e-02  0.0000000000000000e+00 9.2183770544812638e-01 3.2610146063773611e-02  0.0000000000000000e+00 9.2597924361883821e-01 3.4243140602948322e-02  0.0000000000000000e+00 9.2971389894358181e-01 3.5960711987789933e-02  0.0000000000000000e+00 9.3307595835125501e-01 3.7793611297415826e-02  0.0000000000000000e+00 9.3609739845972906e-01 3.9788864045245217e-02  0.0000000000000000e+00 9.3875552959878827e-01 4.1898107129836909e-02  0.0000000000000000e+00 9.4103966328107957e-01 4.4094079257098552e-02  0.0000000000000000e+00 9.4297315701290851e-01 4.6375383353589324e-02  0.0000000000000000e+00 9.4459205113211420e-01 4.8799532525617563e-02  0.0000000000000000e+00 9.4590738598431823e-01 5.1413208076706060e-02  0.0000000000000000e+00 9.4692337713366859e-01 5.4175521996433072e-02  0.0000000000000000e+00 9.4765560878013089e-01 5.7020942246797102e-02  0.0000000000000000e+00 9.4813228985323705e-01 5.9947089161460361e-02  0.0000000000000000e+00 9.4835570198913877e-01 6.3001333609003868e-02  0.0000000000000000e+00 9.4832777953828895e-01 6.6272222637886249e-02  0.0000000000000000e+00 9.4807271993998865e-01 6.9696104425931382e-02  0.0000000000000000e+00 9.4762299980623588e-01 7.3194135231688301e-02  0.0000000000000000e+00 9.4700639240260009e-01 7.6726916357961944e-02  0.0000000000000000e+00 9.4622839036006234e-01 8.0331542847220064e-02  0.0000000000000000e+00 9.4526619459313854e-01 8.4107714749974083e-02  0.0000000000000000e+00 9.4412110664191262e-01 8.8076226983285696e-02  0.0000000000000000e+00 9.4285069895013662e-01 9.2101933933834784e-02  0.0000000000000000e+00 9.4150247489801819e-01 9.6093382892404752e-02  0.0000000000000000e+00 9.4008998340708594e-01 1.0005377756623748e-01  0.0000000000000000e+00 9.3861776117625695e-01 1.0398763153390950e-01  0.0000000000000000e+00 9.3704989434757291e-01 1.0799659410776602e-01  0.0000000000000000e+00 9.3537316340363508e-01 1.1212995842175119e-01  0.0000000000000000e+00 9.3362926975376537e-01 1.1630269761175363e-01  0.0000000000000000e+00 9.3186547181382573e-01 1.2042113636776929e-01  0.0000000000000000e+00 9.3017024061873133e-01 1.2430662500176527e-01  0.0000000000000000e+00 9.2853685771548189e-01 1.2798778579806341e-01  0.0000000000000000e+00 9.2697877860007916e-01 1.3144777330933466e-01  0.0000000000000000e+00 9.2548369985819567e-01 1.3472653774291551e-01  0.0000000000000000e+00 9.2402252255214534e-01 1.3789391853607258e-01  0.0000000000000000e+00 9.2259041789480845e-01 1.4096155137943411e-01  0.0000000000000000e+00 9.2118547892836022e-01 1.4394131290501866e-01  0.0000000000000000e+00 9.1981982892346170e-01 1.4681550399639118e-01  0.0000000000000000e+00 9.1855408454326293e-01 1.4946111329615694e-01  0.0000000000000000e+00 9.1741095291571273e-01 1.5183640409786206e-01  0.0000000000000000e+00 9.1639865229631867e-01 1.5393052311865041e-01  0.0000000000000000e+00 9.1553413789302940e-01 1.5571278833094884e-01  0.0000000000000000e+00 9.1482825877858243e-01 1.5716327683290576e-01  0.0000000000000000e+00 9.3287230078848693e-01 1.1807707658755989e-01  0.0000000000000000e+00 6.5947050440433930e-01 1.1379408529979068e-02  0.0000000000000000e+00 9.4121436405825143e-01 9.6960155114042920e-02  0.0000000000000000e+00 8.0899766143885610e-01 1.6930342655313978e-02  0.0000000000000000e+00 9.1482329340512558e-01 1.5717185022291366e-01  0.0000000000000000e+00 4.5616844279698593e-01 8.3262084749071603e-03  0.0000000000000000e+00 9.4800390392515088e-01 5.8872146332398193e-02  0.0000000000000000e+00 9.1705324583746162e-01 3.1036801056547016e-02  0.0000000000000000e+00 4.0051015194195455e-01 7.9011479593143613e-03  0.0000000000000000e+00 6.0463563103400986e-01 1.0284816594951240e-02  0.0000000000000000e+00 9.4583556674740543e-01 8.1922993837886190e-02  0.0000000000000000e+00 5.5045379890065860e-01 9.4019963563090302e-03  0.0000000000000000e+00 5.4095070291526193e-01 9.2808056078533333e-03  0.0000000000000000e+00 9.4827093912607074e-01 6.1476379704992923e-02  0.0000000000000000e+00 7.0005198154215309e-01 1.2462498978142359e-02  0.0000000000000000e+00 9.3357909004811579e-01 1.1644521104429612e-01  0.0000000000000000e+00 4.9044283453877185e-01 8.6618181905717458e-03  0.0000000000000000e+00 4.4412102131423309e-01 8.2224580284966254e-03  0.0000000000000000e+00 9.2463403216809559e-01 1.3658017219068155e-01  0.0000000000000000e+00 9.4006349858121219e-01 4.3118950362084754e-02  0.0000000000000000e+00 7.7913653325346877e-01 1.5381513596810911e-02  0.0000000000000000e+00 9.1484470892671932e-01 3.0312847140205858e-02  0.0000000000000000e+00 9.1986468495978735e-01 1.4672514441747700e-01  0.0000000000000000e+00 4.1762329360923511e-01 8.0188187586319980e-03  0.0000000000000000e+00 8.4500589963000217e-01 1.9593986876714112e-02  0.0000000000000000e+00 8.8527446633237472e-01 2.4145837113110035e-02  0.0000000000000000e+00 9.1531284268438695e-01 1.5616819855084310e-01  0.0000000000000000e+00 9.2349226053289024e-01 1.3903044703903367e-01  0.0000000000000000e+00 7.2644805873611462e-01 1.3245728034005717e-02  0.0000000000000000e+00 4.2211657612261783e-01 8.0512030932953730e-03  0.0000000000000000e+00 9.4188297703669865e-01 4.5047578259643159e-02  0.0000000000000000e+00 9.4659616252666101e-01 7.8803137927873954e-02  0.0000000000000000e+00 4.0309189371391568e-01 7.9164584132821372e-03  0.0000000000000000e+00 8.7991021859796614e-01 2.3404745487090983e-02  0.0000000000000000e+00 8.5463819051096179e-01 2.0428306287645172e-02  0.0000000000000000e+00 9.1377901868005151e-01 1.5931052939893448e-01  0.0000000000000000e+00 5.0000236155551336e-01 8.7736143270488003e-03  0.0000000000000000e+00 6.1011430076140327e-01 1.0369008606225723e-02  0.0000000000000000e+00 9.1821770306668737e-01 1.5015921934926940e-01  0.0000000000000000e+00 9.3949227335778929e-01 1.0166958256897388e-01  0.0000000000000000e+00 7.7010804749140527e-01 1.4925052424315783e-02  0.0000000000000000e+00 4.0777737674621245e-01 7.9486249771861354e-03  0.0000000000000000e+00 9.3260683964875379e-01 3.7564600096573524e-02  0.0000000000000000e+00 9.2958552086165513e-01 1.2564568399946974e-01  0.0000000000000000e+00 9.4597795385491235e-01 5.1570681592903782e-02  0.0000000000000000e+00 3.9943581994031063e-01 7.8923776705636037e-03  0.0000000000000000e+00 4.3723748363584058e-01 8.1674358918035171e-03  0.0000000000000000e+00 9.0089084925012075e-01 2.6947197766858541e-02  0.0000000000000000e+00 6.4407161489853493e-01 1.1058574815264371e-02  0.0000000000000000e+00 9.2789528101460772e-01 1.2941446056629080e-01  0.0000000000000000e+00 9.4435440139599369e-01 8.7365124531786700e-02  0.0000000000000000e+00 9.4648347129211652e-01 5.2881282564007613e-02  0.0000000000000000e+00 4.6840016499807169e-01 8.4368911746965092e-03  0.0000000000000000e+00 9.3166012266072484e-01 3.6984514688295757e-02  0.0000000000000000e+00 6.9447246204126767e-01 1.2276375281057543e-02  0.0000000000000000e+00 9.4809953750413778e-01 6.9639472032496735e-02  0.0000000000