<?xml version="1.0"?>
<VTKFile type="UnstructuredGrid"  version="0.1"  >
<UnstructuredGrid>
<Piece  NumberOfPoints="4940" NumberOfCells="9650">
<Points>
<DataArray  type="Float64"  NumberOfComponents="3"  format="ascii">500 250 0  0 250 0  250 500 0  250 0 0  256.8885856082646 499.9050767557906 0  263.7719401218049 499.6203791065173 0  270.6448364229772 499.1461232471188 0  277.5020553257866 498.4826693209355 0  284.3383895508592 497.6305211460281 0  291.1486476865662 496.5903258312597 0  297.9276581259182 495.3628732847843 0  304.6702729675493 493.9490956196674 0  311.3713719748657 492.3500664368026 0  318.0258664141369 490.5670000199653 0  324.6287029687753 488.6012504015818 0  331.1748675330201 486.4543103455647 0  337.6593890460416 484.1278102064655 0  344.0773432429536 481.6235166997244 0  350.4238564271474 478.9433315480048 0  356.694109139292 476.0892900492477 0  362.88333985546 473.0635595140469 0  368.9868485575419 469.8684376402048 0  375.0000003153078 466.5063507640667 0  380.9182288257928 462.9798520074548 0  386.7370398729688 459.2916193419558 0  392.4520147244077 455.444453565817 0  398.0588135356345 451.4412761437442 0  403.5531785622926 447.285127045646 0  408.9309374414144 442.9791624087773 0  414.1880064015299 438.5266521049243 0  419.3203932989752 433.9309773069245 0  424.324200661095 429.1956279150535 0  429.1956286596235 424.3241998957182 0  433.9309780058756 419.3203925397119 0  438.5266527445345 414.1880056671062 0  442.9791630130591 408.9309367076756 0  447.2851276060475 403.5531778422888 0  451.4412766621026 398.0588128303826 0  455.4444540361634 392.4520140460735 0  459.2916197786263 386.7370392045948 0  462.9798524073514 380.9182281752347 0  466.5063511234856 374.9999996927758 0  469.8684379657123 368.9868479560565 0  473.0635598144817 362.8833392617846 0  476.0892903190255 356.6941085676214 0  478.9433317963513 350.4238558609745 0  481.6235169154735 344.0773427117675 0  484.12781039012 337.6593885555221 0  486.4543105028062 331.1748670749914 0  488.601250531677 324.6287025528375 0  490.5670001317469 318.0258660188321 0  492.3500665291326 311.3713716102628 0  493.949095695951 304.6702726271575 0  495.3628733416623 297.9276578347343 0  496.5903258712341 291.1486474470129 0  497.6305211749058 284.3383893426084 0  498.4826693388848 277.502055163614 0  499.1461232580606 270.6448362909296 0  499.6203791109319 263.7719400417897 0  499.9050767571306 256.8885855596534 0  499.9050767559877 243.1114143988867 0  499.6203791069493 236.2280598860241 0  499.1461232485393 229.3551635941651 0  498.4826693235677 222.4979446979962 0  497.6305211491849 215.6616104719064 0  496.5903258357701 208.8513523404629 0  495.3628732906988 202.0723419043604 0  493.9490956264813 195.3297270628552 0  492.3500664487791 188.6286280724281 0  490.5670000344809 181.9741336371959 0  488.6012504175981 175.3712970824318 0  486.4543103623226 168.8251325157939 0  484.1278102222298 162.3406109960628 0  481.6235167152198 155.9226567951971 0  478.9433315621651 149.5761436051346 0  476.0892900516498 143.3058908657982 0  473.063559513628 137.1166601437124 0  469.8684376406648 131.0131514433083 0  466.5063507675389 124.9999996907064 0  462.9798520124137 119.0817711822745 0  459.2916193464549 113.2629601339176 0  455.4444535642773 107.5479852733717 0  451.4412761528674 101.9411864767781 0  447.2851270583545 96.44682145403524 0  442.9791624165781 91.06906256805769 0  438.5266521117469 85.81199360630404 0  433.9309773156125 80.67960671046254 0  429.1956279150353 75.67579933888632 0  424.3241998888952 70.80437133373906 0  419.3203925223282 66.06902197812161 0  414.1880056411937 61.47334723289828 0  408.9309366751728 57.0208369601728 0  403.5531778009394 52.71487236176898 0  398.058812796452 48.55872331295853 0  392.4520140187753 44.55554594490843 0  386.7370391799677 40.70838020528396 0  380.9182281475119 37.02014757560744 0  374.9999996718656 33.49364886444181 0  368.9868479340393 30.13156202237255 0  362.8833392380029 26.93644017348339 0  356.6941085456942 23.91070967062674 0  350.4238558420009 21.0566681953261 0  344.0773426899492 18.37648307566465 0  337.6593885328982 15.87218960140942 0  331.1748670549786 13.54568949032341 0  324.6287025315056 11.39874946165088 0  318.0258660010876 9.432999863235466 0  311.3713716017894 7.649933468721599 0  304.6702726190621 6.050904302234756 0  297.9276578269805 4.637126656823085 0  291.148647441857 3.409674127905504 0  284.3383893425031 2.369478825079682 0  277.502055159398 1.517330660648639 0  270.6448362875833 0.853876741662134 0  263.7719400401456 0.3796208889774277 0  256.8885855592052 0.09492324285704967 0  243.1114143979462 0.09492324403817065 0  236.2280598850882 0.3796208931023841 0  229.3551635938215 0.8538767514891958 0  222.4979446968584 1.517330676558146 0  215.6616104703111 2.369478851036291 0  208.8513523382973 3.409674164591252 0  202.0723419066374 4.637126708856528 0  195.3297270659513 6.050904372824903 0  188.628628074828 7.649933550613184 0  181.9741336377093 9.432999965373938 0  175.3712970793675 11.39874958336037 0  168.8251325057572 13.54568964112298 0  162.340610986655 15.87218978129263 0  155.9226567874317 18.37648328793418 0  149.576143602509 21.05666843898663 0  143.3058908718157 23.91070994551046 0  137.1166601505524 26.93644048291054 0  131.0131514451933 30.13156235831508 0  124.9999996848412 33.49364923584736 0  119.0817711715717 37.0201479941652 0  113.2629601211624 40.70838066187849 0  107.5479852622251 44.55554644345162 0  101.9411864693332 48.55872385260452 0  96.44682143286516 52.71487295812284 0  91.06906254351222 57.02083760363669 0  85.81199358272519 61.4733479087879 0  80.67960667988106 66.06902271253972 0  75.67579930062769 70.80437212218331 0  70.80437129287643 75.67580015310926 0  66.06902193673014 80.67960752263491 0  61.47334718684866 85.81199441168215 0  57.02083692524275 91.0690633672404 0  52.71487232786438 96.44682224262129 0  48.55872328070024 101.941187247437 0  44.55554591578033 107.5479860232332 0  40.7083801742321 113.2629608675606 0  37.02014754791168 119.0817718975441 0  33.49364883372994 125.000000381329 0  30.13156199866361 131.0131521097709 0  26.9364401549829 137.1166607985551 0  23.91070965524918 143.3058914868915 0  21.05666818346614 149.576144185037 0  18.37648306853811 155.9226573275967 0  15.8721895918909 162.3406114925245 0  13.54568948170046 168.8251329701392 0  11.39874945301878 175.3712974960928 0  9.432999857087736 181.9741340206533 0  7.649933466342702 188.6286284076045 0  6.050904301250966 195.3297273853278 0  4.637126656808988 202.0723421730917 0  3.409674127767772 208.8513525589684 0  2.369478824521138 215.6616106615248 0  1.517330660909465 222.4979448382452 0  0.8538767414496533 229.355163714981 0  0.3796208887135322 236.2280599646376 0  0.09492324266324204 243.1114144478261 0  0.0949232442452228 256.8885856095658 0  0.3796208935834784 263.7719401236316 0  0.8538767530323526 270.6448364248016 0  1.517330679476544 277.5020553295092 0  2.369478854618649 284.3383895555228 0  3.409674170191892 291.1486476952655 0  4.6371267162381 297.9276581311522 0  6.050904381420935 304.6702729724059 0  7.649933562385399 311.3713719716595 0  9.43299997979841 318.0258664133013 0  11.3987495994252 324.6287029719946 0  13.54568965885832 331.174867545904 0  15.87218979367188 337.6593890464085 0  18.37648329843151 344.0773432384132 0  21.05666844777872 350.423856417535 0  23.91070995156048 356.6941091410045 0  26.93644048988043 362.8833398632205 0  30.13156235982007 368.9868485575877 0  33.49364924138357 375.0000003247478 0  37.0201480006036 380.9182288389023 0  40.70838066758398 386.7370398875706 0  44.55554644477201 392.4520147396792 0  48.55872386086904 398.0588135419111 0  52.71487295981296 403.5531785693063 0  57.02083760525949 408.9309374584583 0  61.47334790862246 414.1880064170849 0  66.06902271205095 419.320393319588 0  70.80437211216579 424.3242006890749 0  75.67580013809859 429.195628692521 0  80.6796075127923 433.930978054209 0  85.81199439754931 438.5266528008431 0  91.06906334717917 442.9791630582355 0  96.44682221438322 447.2851276501571 0  101.9411872243843 451.441276702356 0  107.5479859945825 455.4444540643537 0  113.2629608446994 459.2916198108319 0  119.0817718768376 462.9798524393601 0  125.0000003647644 466.5063511567065 0  131.0131521012763 469.8684379967393 0  137.1166607840049 473.0635598376539 0  143.3058914748804 476.0892903390826 0  149.5761441732679 478.9433318113714 0  155.9226573130112 481.6235169255377 0  162.3406114779862 484.1278104026658 0  168.8251329570439 486.4543105138039 0  175.3712974805475 488.601250542119 0  181.9741340135204 490.5670001408953 0  188.6286284005059 492.3500665318597 0  195.3297273788229 493.9490956972913 0  202.0723421640089 495.3628733414168 0  208.8513525529672 496.5903258712308 0  215.6616106544547 497.6305211744985 0  222.4979448327038 498.4826693384772 0  229.3551637102845 499.1461232581612 0  236.2280599621369 499.6203791111485 0  243.1114144470173 499.9050767573145 0  155.2373389820306 474.8197567317462 0  25.36256300907667 153.9152755065208 0  432.3709625126712 412.6214396304305 0  6.013151705810699 246.637913163471 0  246.6379131630491 493.986848294322 0  338.6995838441862 22.68244767887072 0  477.3175523131281 338.6995838660569 0  493.9868482700757 246.6379131399102 0  246.6201155078769 6.218451882810491 0  417.6179310263282 72.7156044707053 0  102.2232990934413 445.0100869616822 0  63.66330858966404 92.20354579482142 0  391.3105220491464 50.73522820883105 0  72.79295043967942 418.0702734974704 0  448.290574428537 108.25674339002 0  402.4604651193511 440.7462829841712 0  97.55317348421397 59.11376320116034 0  136.7376477664901 33.58246472647134 0  363.3288394375288 465.6947312928271 0  44.0678766556007 381.0860953771871 0  469.6905266180034 142.3890690100806 0  22.68244791668644 338.6995843487432 0  338.699584349159 477.317552078365 0  173.389488083762 18.6681884918202 0  483.4809734778481 179.7121987795732 0  13.50237455842738 306.4709525540879 0  305.9825168523021 487.24416992
[...]
<PointData  Vectors="f_12"> 
<DataArray  type="Float64"  Name="f_12"  NumberOfComponents="3" format="ascii">0.0000000000000000e+00 8.2238308038406915e-01 3.2987726126068040e-01  0.0000000000000000e+00 9.0574570730424009e-01 1.7552487129110933e-01  0.0000000000000000e+00 2.4491615661636859e-01 1.0092908875565616e+00  0.0000000000000000e+00 9.4631865618461897e-01 5.1102145556142328e-02  0.0000000000000000e+00 2.4218798512861056e-01 1.0100911877577563e+00  0.0000000000000000e+00 2.4055762845538026e-01 1.0105424779738008e+00  0.0000000000000000e+00 2.3963785628837261e-01 1.0107908601976578e+00  0.0000000000000000e+00 2.3967670903982627e-01 1.0107828974321398e+00  0.0000000000000000e+00 2.4054064857264870e-01 1.0105479065371550e+00  0.0000000000000000e+00 2.4224797877714041e-01 1.0100717596436077e+00  0.0000000000000000e+00 2.4479451791084914e-01 1.0093282662695806e+00  0.0000000000000000e+00 2.4814071084366965e-01 1.0082961912418398e+00  0.0000000000000000e+00 2.5230966831362123e-01 1.0069243117686133e+00  0.0000000000000000e+00 2.5734243204265617e-01 1.0051376465809627e+00  0.0000000000000000e+00 2.6341682415111672e-01 1.0028039444072994e+00  0.0000000000000000e+00 2.6982777803138419e-01 1.0001462187954293e+00  0.0000000000000000e+00 2.7754733996701425e-01 9.9666442456418514e-01  0.0000000000000000e+00 2.8553118626417334e-01 9.9276813939346875e-01  0.0000000000000000e+00 2.9414283212204084e-01 9.8824733653738239e-01  0.0000000000000000e+00 3.0318369214751090e-01 9.8315149017681047e-01  0.0000000000000000e+00 3.1248934688007585e-01 9.7755126139356208e-01  0.0000000000000000e+00 3.2225466766069460e-01 9.7130067169983203e-01  0.0000000000000000e+00 3.3235446480591602e-01 9.6446666866377251e-01  0.0000000000000000e+00 3.4270947991640466e-01 9.5706640675136034e-01  0.0000000000000000e+00 3.5367054451893215e-01 9.4882873708102367e-01  0.0000000000000000e+00 3.6550621455499016e-01 9.3947797788911080e-01  0.0000000000000000e+00 3.7831344616900775e-01 9.2885736969802302e-01  0.0000000000000000e+00 3.9165698055256587e-01 9.1725810689578979e-01  0.0000000000000000e+00 4.0556990284750855e-01 9.0460601465607682e-01  0.0000000000000000e+00 4.1999379046350788e-01 8.9091045093978849e-01  0.0000000000000000e+00 4.3419754387810211e-01 8.7687963948064229e-01  0.0000000000000000e+00 4.4826257312068385e-01 8.6245803079263728e-01  0.0000000000000000e+00 4.6219682881552032e-01 8.4769312789929196e-01  0.0000000000000000e+00 4.7617712796806061e-01 8.3240076480676228e-01  0.0000000000000000e+00 4.9075280848687369e-01 8.1596447555109808e-01  0.0000000000000000e+00 5.0582513951649066e-01 7.9847211669227802e-01  0.0000000000000000e+00 5.2122592017163027e-01 7.8007594895218035e-01  0.0000000000000000e+00 5.3684259114184951e-01 7.6089922285819578e-01  0.0000000000000000e+00 5.5222830975345460e-01 7.4151036810636461e-01  0.0000000000000000e+00 5.6697903975426633e-01 7.2246983017484201e-01  0.0000000000000000e+00 5.8128708967462406e-01 7.0358617759599262e-01  0.0000000000000000e+00 5.9573361246633938e-01 6.8411709444328428e-01  0.0000000000000000e+00 6.1049450109271874e-01 6.6381454132922191e-01  0.0000000000000000e+00 6.2527329509625207e-01 6.4308187181240573e-01  0.0000000000000000e+00 6.3986698129936082e-01 6.2221145724102911e-01  0.0000000000000000e+00 6.5394822091920057e-01 6.0170929048824084e-01  0.0000000000000000e+00 6.6739580795016384e-01 5.8179677366351312e-01  0.0000000000000000e+00 6.8042145674408028e-01 5.6221022507601792e-01  0.0000000000000000e+00 6.9353416811344326e-01 5.4218791052945092e-01  0.0000000000000000e+00 7.0656008842382367e-01 5.2201126798306607e-01  0.0000000000000000e+00 7.1927004503047465e-01 5.0204168028488283e-01  0.0000000000000000e+00 7.3139003709826311e-01 4.8274231685418900e-01  0.0000000000000000e+00 7.4288356121974886e-01 4.6421145483269843e-01  0.0000000000000000e+00 7.5401002865796096e-01 4.4605828145527676e-01  0.0000000000000000e+00 7.6492644333628723e-01 4.2804604715336986e-01  0.0000000000000000e+00 7.7561548064663943e-01 4.1021525736686626e-01  0.0000000000000000e+00 7.8597773662764325e-01 3.9274303118263876e-01  0.0000000000000000e+00 7.9581052103080441e-01 3.7599568256758831e-01  0.0000000000000000e+00 8.0506482750964070e-01 3.6007674253102218e-01  0.0000000000000000e+00 8.1371284445282155e-01 3.4507723526820566e-01  0.0000000000000000e+00 8.3080136880137512e-01 3.1500947331948509e-01  0.0000000000000000e+00 8.3877431818548331e-01 3.0080441099460975e-01  0.0000000000000000e+00 8.4611843244754814e-01 2.8760468943989742e-01  0.0000000000000000e+00 8.5314357533224960e-01 2.7487376348123216e-01  0.0000000000000000e+00 8.5988842159511136e-01 2.6255446024620543e-01  0.0000000000000000e+00 8.6645314023048059e-01 2.5046807518353548e-01  0.0000000000000000e+00 8.7267168867969025e-01 2.3892335982418209e-01  0.0000000000000000e+00 8.7844882109486910e-01 2.2810492934668555e-01  0.0000000000000000e+00 8.8383746067923818e-01 2.1792616044740240e-01  0.0000000000000000e+00 8.8895458206735711e-01 2.0817541593677935e-01  0.0000000000000000e+00 8.9390784549574476e-01 1.9865356718062072e-01  0.0000000000000000e+00 8.9861645902780674e-01 1.8951597116527014e-01  0.0000000000000000e+00 9.0302028027932546e-01 1.8088085611868554e-01  0.0000000000000000e+00 9.0705668552123009e-01 1.7287393098252973e-01  0.0000000000000000e+00 9.1080868593453335e-01 1.6534139316615382e-01  0.0000000000000000e+00 9.1437256764717656e-01 1.5809719888172866e-01  0.0000000000000000e+00 9.1779262180597332e-01 1.5105449676368285e-01  0.0000000000000000e+00 9.2101053116335552e-01 1.4432783184129266e-01  0.0000000000000000e+00 9.2395872007564550e-01 1.3805624368172162e-01  0.0000000000000000e+00 9.2663237151832611e-01 1.3225635657818777e-01  0.0000000000000000e+00 9.2909786059034849e-01 1.2679515373543507e-01  0.0000000000000000e+00 9.3139435425390849e-01 1.2159068075771945e-01  0.0000000000000000e+00 9.3358176741775722e-01 1.1651517494331540e-01  0.0000000000000000e+00 9.3560902047041783e-01 1.1167901088310311e-01  0.0000000000000000e+00 9.3744005553711807e-01 1.0716331904428120e-01  0.0000000000000000e+00 9.3905471992325573e-01 1.0302297953880336e-01  0.0000000000000000e+00 9.4048006182599675e-01 9.9205830147887225e-02  0.0000000000000000e+00 9.4176814767776529e-01 9.5594251681209524e-02  0.0000000000000000e+00 9.4295656960446617e-01 9.2099578476925015e-02  0.0000000000000000e+00 9.4404746694014974e-01 8.8707708522754739e-02  0.0000000000000000e+00 9.4501706492961424e-01 8.5483389306960089e-02  0.0000000000000000e+00 9.4584406802065146e-01 8.2496227724053961e-02  0.0000000000000000e+00 9.4652660549730339e-01 7.9768043037385605e-02  0.0000000000000000e+00 9.4707674478821746e-01 7.7299061208722999e-02  0.0000000000000000e+00 9.4751845317465544e-01 7.5037193156279380e-02  0.0000000000000000e+00 9.4788954551520566e-01 7.2850668034662822e-02  0.0000000000000000e+00 9.4819222854488616e-01 7.0736819147362393e-02  0.0000000000000000e+00 9.4841768076604960e-01 6.8742324931297061e-02  0.0000000000000000e+00 9.4857728843547240e-01 6.6809751587327187e-02  0.0000000000000000e+00 9.4866862785846040e-01 6.4982034595203741e-02  0.0000000000000000e+00 9.4868489055693073e-01 6.3370652140055245e-02  0.0000000000000000e+00 9.4864148056414266e-01 6.1911681492704873e-02  0.0000000000000000e+00 9.4855454352323565e-01 6.0608427096835220e-02  0.0000000000000000e+00 9.4843484229484276e-01 5.9425425135704570e-02  0.0000000000000000e+00 9.4829024972689191e-01 5.8350360752287042e-02  0.0000000000000000e+00 9.4812643855827561e-01 5.7356830770472579e-02  0.0000000000000000e+00 9.4794857554801126e-01 5.6440076426341988e-02  0.0000000000000000e+00 9.4776128536335535e-01 5.5595987610829373e-02  0.0000000000000000e+00 9.4756552648378956e-01 5.4805552333995866e-02  0.0000000000000000e+00 9.4736577737434968e-01 5.4071341994632663e-02  0.0000000000000000e+00 9.4717027142912347e-01 5.3414389101760780e-02  0.0000000000000000e+00 9.4698281432721054e-01 5.2839425152984280e-02  0.0000000000000000e+00 9.4680928815408749e-01 5.2350963589445243e-02  0.0000000000000000e+00 9.4664831229727231e-01 5.1919367793708732e-02  0.0000000000000000e+00 9.4651274720561085e-01 5.1572723648435674e-02  0.0000000000000000e+00 9.4640104070470099e-01 5.1294319139277844e-02  0.0000000000000000e+00 9.4627662814199498e-01 5.1018066714044394e-02  0.0000000000000000e+00 9.4620897884083999e-01 5.0821765448392293e-02  0.0000000000000000e+00 9.4623667943745315e-01 5.0914631262203400e-02  0.0000000000000000e+00 9.4626878945249826e-01 5.0989446299357012e-02  0.0000000000000000e+00 9.4632545660771616e-01 5.1119995710922878e-02  0.0000000000000000e+00 9.4641258276194584e-01 5.1332185828771998e-02  0.0000000000000000e+00 9.4652769218666599e-01 5.1623993198188917e-02  0.0000000000000000e+00 9.4665950746297389e-01 5.1963185598005258e-02  0.0000000000000000e+00 9.4681105279400801e-01 5.2374569128750707e-02  0.0000000000000000e+00 9.4695720463263278e-01 5.2762540945363083e-02  0.0000000000000000e+00 9.4714328201520837e-01 5.3343299968940550e-02  0.0000000000000000e+00 9.4732404791675173e-01 5.3943344899087087e-02  0.0000000000000000e+00 9.4750563654401754e-01 5.4590199146067005e-02  0.0000000000000000e+00 9.4768108622059444e-01 5.5252786876093869e-02  0.0000000000000000e+00 9.4785316923138685e-01 5.5977512554745631e-02  0.0000000000000000e+00 9.4802003408534730e-01 5.6780677570998292e-02  0.0000000000000000e+00 9.4817325888777793e-01 5.7604813611099176e-02  0.0000000000000000e+00 9.4831428313917610e-01 5.8470891291477624e-02  0.0000000000000000e+00 9.4843957331540096e-01 5.9389756447039511e-02  0.0000000000000000e+00 9.4854568299612074e-01 6.0380121804699628e-02  0.0000000000000000e+00 9.4862724677783694e-01 6.1467951257608906e-02  0.0000000000000000e+00 9.4867996449911740e-01 6.2656949360752126e-02  0.0000000000000000e+00 9.4869717910065610e-01 6.3935403216527062e-02  0.0000000000000000e+00 9.4867183192575988e-01 6.5315719186464172e-02  0.0000000000000000e+00 9.4859884214084023e-01 6.6799043636049119e-02  0.0000000000000000e+00 9.4847643578406760e-01 6.8364673612456336e-02  0.0000000000000000e+00 9.4830566006021910e-01 6.9992772265383488e-02  0.0000000000000000e+00 9.4809066987078972e-01 7.1657311969840862e-02  0.0000000000000000e+00 9.4783434706375214e-01 7.3350342182995840e-02  0.0000000000000000e+00 9.4753727156403833e-01 7.5074245744478685e-02  0.0000000000000000e+00 9.4719500563451842e-01 7.6850719586071897e-02  0.0000000000000000e+00 9.4680048723032761e-01 7.8704948486691656e-02  0.0000000000000000e+00 9.4633598728738122e-01 8.0689691794094479e-02  0.0000000000000000e+00 9.4578512205624043e-01 8.2841010630508777e-02  0.0000000000000000e+00 9.4513672829273687e-01 8.5184704618024396e-02  0.0000000000000000e+00 9.4439944397847120e-01 8.7676238926015337e-02  0.0000000000000000e+00 9.4358639569425462e-01 9.0272622901560906e-02  0.0000000000000000e+00 9.4271802293174234e-01 9.2918884786239997e-02  0.0000000000000000e+00 9.4180386850432285e-01 9.5592867351200428e-02  0.0000000000000000e+00 9.4084440289662152e-01 9.8298444031153495e-02  0.0000000000000000e+00 9.3979504310180106e-01 1.0115312638047239e-01  0.0000000000000000e+00 9.3865091394155331e-01 1.0416439055025732e-01  0.0000000000000000e+00 9.3739642906254006e-01 1.0736119332847524e-01  0.0000000000000000e+00 9.3598150357119281e-01 1.1085961238284925e-01  0.0000000000000000e+00 9.3441344084782085e-01 1.1462971653751469e-01  0.0000000000000000e+00 9.3273395557365091e-01 1.1857269137918741e-01  0.0000000000000000e+00 9.3102498400267486e-01 1.2250880976983930e-01  0.0000000000000000e+00 9.2919322396918103e-01 1.2664767914410568e-01  0.0000000000000000e+00 9.2730382203846184e-01 1.3084649593606937e-01  0.0000000000000000e+00 9.2526142270005396e-01 1.3531139534092182e-01  0.0000000000000000e+00 9.2302821746973596e-01 1.4010948105992793e-01  0.0000000000000000e+00 9.2054491882439371e-01 1.4536488559369834e-01  0.0000000000000000e+00 9.1784449033351656e-01 1.5099899597152000e-01  0.0000000000000000e+00 9.1500487062677172e-01 1.5685039625552519e-01  0.0000000000000000e+00 9.1207568610744860e-01 1.6282151419266730e-01  0.0000000000000000e+00 9.0902198373118259e-01 1.6898293331172834e-01  0.0000000000000000e+00 9.0215880888961963e-01 1.8261412296086180e-01  0.0000000000000000e+00 8.9823253260220404e-01 1.9029772616334970e-01  0.0000000000000000e+00 8.9401977595249449e-01 1.9846663447398036e-01  0.0000000000000000e+00 8.8961653148197983e-01 2.0693505715743105e-01  0.0000000000000000e+00 8.8504436907383777e-01 2.1565934040837303e-01  0.0000000000000000e+00 8.8020469690761927e-01 2.2482109150694451e-01  0.0000000000000000e+00 8.7495776343836140e-01 2.3467381116956593e-01  0.0000000000000000e+00 8.6922402487668715e-01 2.4535332871849605e-01  0.0000000000000000e+00 8.6306320093960909e-01 2.5673711251508374e-01  0.0000000000000000e+00 8.5659568312086920e-01 2.6859444995733184e-01  0.0000000000000000e+00 8.4986889379979880e-01 2.8083280182691733e-01  0.0000000000000000e+00 8.4276522153720690e-01 2.9365453188253404e-01  0.0000000000000000e+00 8.3510423282141999e-01 3.0736756695229250e-01  0.0000000000000000e+00 8.2679825807683305e-01 3.2210672762289544e-01  0.0000000000000000e+00 8.1802847957634972e-01 3.3753134914655536e-01  0.0000000000000000e+00 8.0887527714516660e-01 3.5348339536440709e-01  0.0000000000000000e+00 7.9928895702186575e-01 3.7003413105274735e-01  0.0000000000000000e+00 7.8911682433026675e-01 3.8741823791573399e-01  0.0000000000000000e+00 7.7815059010007570e-01 4.0596329397240438e-01  0.0000000000000000e+00 7.6656190602176899e-01 4.2533451604899691e-01  0.0000000000000000e+00 7.5452129923337019e-01 4.4522327923488547e-01  0.0000000000000000e+00 7.4206771787675119e-01 4.6553841337980628e-01  0.0000000000000000e+00 7.2894625850484618e-01 4.8665799799784748e-01  0.0000000000000000e+00 7.1493773761113577e-01 5.0888427807263681e-01  0.0000000000000000e+00 7.0020899248956259e-01 5.3188945396844545e-01  0.0000000000000000e+00 6.8508466548011471e-01 5.5512512564333438e-01  0.0000000000000000e+00 6.6961436344575220e-01 5.7848821457169097e-01  0.0000000000000000e+00 6.5364858795945369e-01 6.0215372030222603e-01  0.0000000000000000e+00 6.3678249456097225e-01 6.2666236182987822e-01  0.0000000000000000e+00 6.1927303744027429e-01 6.5155505664112368e-01  0.0000000000000000e+00 6.0150345595971177e-01 6.7624008680730630e-01  0.0000000000000000e+00 5.8371100522322228e-01 7.0035767376289837e-01  0.0000000000000000e+00 5.6578118343783634e-01 7.2404330644289661e-01  0.0000000000000000e+00 5.4732311213164753e-01 7.4775608830840568e-01  0.0000000000000000e+00 5.2824163227617116e-01 7.7153615207800508e-01  0.0000000000000000e+00 5.0913530907351034e-01 7.9457162032474449e-01  0.0000000000000000e+00 4.9042548070953301e-01 8.1635447879349743e-01  0.0000000000000000e+00 4.7210256040620507e-01 8.3691528117176262e-01  0.0000000000000000e+00 4.5423993408074714e-01 8.5619695909713434e-01  0.0000000000000000e+00 4.3645850683569209e-01 8.7460771907018819e-01  0.0000000000000000e+00 4.1853354104372514e-01 8.9234101646354413e-01  0.0000000000000000e+00 4.0082382828438007e-01 9.0899477230639147e-01  0.0000000000000000e+00 3.8369441140561789e-01 9.2426195965480640e-01  0.0000000000000000e+00 3.6781534114414843e-01 9.3760887572746288e-01  0.0000000000000000e+00 3.5305676582500056e-01 9.4931083290339124e-01  0.0000000000000000e+00 3.3947812602513927e-01 9.5942734943078678e-01  0.0000000000000000e+00 3.2687180281659994e-01 9.6822847657250555e-01  0.0000000000000000e+00 3.1496280235333768e-01 9.7600222014335758e-01  0.0000000000000000e+00 3.0373462577899013e-01 9.8283719433677763e-01  0.0000000000000000e+00 2.9309883827373978e-01 9.8881225283553731e-01  0.0000000000000000e+00 2.8305352845654075e-01 9.9401058221549343e-01  0.0000000000000000e+00 2.7401162469995533e-01 9.9828949909184528e-01  0.0000000000000000e+00 2.6605878343107614e-01 1.0017364488460947e+00  0.0000000000000000e+00 2.5916522217370852e-01 1.0044543219249711e+00  0.0000000000000000e+00 2.5337617085708919e-01 1.0065583014570918e+00  0.0000000000000000e+00 2.4873196270152534e-01 1.0081049534902111e+00  0.0000000000000000e+00 3.9348313271816504e-01 9.1564259233240108e-01  0.0000000000000000e+00 9.3806927252832772e-01 1.0564060346199326e-01  0.0000000000000000e+00 4.8578371230856332e-01 8.2164060375390069e-01  0.0000000000000000e+00 9.0715162885320277e-01 1.7272104229341953e-01  0.0000000000000000e+00 2.4878753350760663e-01 1.0080937523012690e+00  0.0000000000000000e+00 9.4850700779041319e-01 6.0391466244781186e-02  0.0000000000000000e+00 6.7479139035738989e-01 5.7071329305045138e-01  0.0000000000000000e+00 8.2684996619058482e-01 3.2201465012819241e-01  0.0000000000000000e+00 9.4642135792068605e-01 5.1494179537872269e-02  0.0000000000000000e+00 9.4342169422229738e-01 9.0657295561875101e-02  0.0000000000000000e+00 5.5801586743765574e-01 7.3409802981029004e-01  0.0000000000000000e+00 9.4690121552112827e-01 7.8176808298923497e-02  0.0000000000000000e+00 9.4728606997031695e-01 7.6205752091036444e-02  0.0000000000000000e+00 6.6163611225652297e-01 5.9037071439433630e-01  0.0000000000000000e+00 9.3244288229351491e-01 1.1916812261260955e-01  0.0000000000000000e+00 3.9977496799378237e-01 9.0996024160847377e-01  0.0000000000000000e+00 9.4860021900495561e-01 6.6385234877470764e-02  0.0000000000000000e+00 9.4827206046523083e-01 5.8395685193292413e-02  0.0000000000000000e+00 3.1973300640081936e-01 9.7297395452947877e-01  0.0000000000000000e+00 7.5988671915747041e-01 4.3638735163886472e-01  0.0000000000000000e+00 9.1614995366817098e-01 1.5444688888391897e-01  0.0000000000000000e+00 8.3092675339811528e-01 3.1479955591400444e-01  0.0000000000000000e+00 2.8334735933127286e-01 9.9386908608057878e-01  0.0000000000000000e+00 9.4733889472677713e-01 5.4140200799586730e-02  0.0000000000000000e+00 8.9201719950967906e-01 2.0229704781840710e-01  0.0000000000000000e+00 8.6586946386407737e-01 2.5156067957528622e-01  0.0000000000000000e+00 2.5199375854690509e-01 1.0070304912165722e+00  0.0000000000000000e+00 3.1086157159090000e-01 9.7857431585907362e-01  0.0000000000000000e+00 9.2804413333732128e-01 1.2919842771317508e-01  0.0000000000000000e+00 9.4753723984049942e-01 5.4842791409485551e-02  0.0000000000000000e+00 7.4902215121323135e-01 4.5422273166860100e-01  0.0000000000000000e+00 5.7269005112649130e-01 7.1498153260669961e-01  0.0000000000000000e+00 9.4658400539333054e-01 5.1881526517052350e-02  0.0000000000000000e+00 8.7013837769833358e-01 2.4363686630842357e-01  0.0000000000000000e+00 8.8710174280656862e-01 2.1173917111576462e-01  0.0000000000000000e+00 2.4203462378447305e-01 1.0101325447940124e+00  0.0000000000000000e+00 9.4845501066402416e-01 6.8156347137545939e-02  0.0000000000000000e+00 9.4301322227130102e-01 9.2003599216789772e-02  0.0000000000000000e+00 2.7174737069388055e-01 9.9930897972964106e-01  0.0000000000000000e+00 4.6479655863239200e-01 8.4492025180010566e-01  0.0000000000000000e+00 9.1862898750223387e-01 1.4936212031908849e-01  0.0000000000000000e+00 9.4684717545265773e-01 5.2601721120891641e-02  0.0000000000000000e+00 7.9024721425937938e-01 3.8548912497479987e-01  0.0000000000000000e+00 3.6214888744971246e-01 9.4218593573541876e-01  0.0000000000000000e+00 7.1371627834249429e-01 5.1080278955479019e-01  0.0000000000000000e+00 9.4636212863168556e-01 5.1323902667918635e-02  0.0000000000000000e+00 9.4808014575068034e-01 5.7267919032502779e-02  0.0000000000000000e+00 8.4993669325291576e-01 2.8070001350270152e-01  0.0000000000000000e+00 9.3974329274473545e-01 1.0118649175695188e-01  0.0000000000000000e+00 3.4751135026433472e-01 9.5350804916156462e-01  0.0000000000000000e+00 5.3100060480555000e-01 7.6815067715334295e-01  0.0000000000000000e+00 7.0714291259919859e-01 5.2110859941785437e-01  0.0000000000000000e+00 9.4864468288814852e-01 6.2476434480486655e-02  0.0000000000000000e+00 7.9361534917604737e-01 3.7975487470307584e-01  0.0000000000000000e+00 9.3336614011194907e-01 1.1708326854886507e-01  0.0000000000000000e+00 6.1895579668484513e-01 6.5199275280157032e-01  0.0000000000