<?xml version="1.0"?>
<VTKFile type="UnstructuredGrid"  version="0.1"  >
<UnstructuredGrid>
<Piece  NumberOfPoints="4940" NumberOfCells="9650">
<Points>
<DataArray  type="Float64"  NumberOfComponents="3"  format="ascii">500 250 0  0 250 0  250 500 0  250 0 0  256.8885856082646 499.9050767557906 0  263.7719401218049 499.6203791065173 0  270.6448364229772 499.1461232471188 0  277.5020553257866 498.4826693209355 0  284.3383895508592 497.6305211460281 0  291.1486476865662 496.5903258312597 0  297.9276581259182 495.3628732847843 0  304.6702729675493 493.9490956196674 0  311.3713719748657 492.3500664368026 0  318.0258664141369 490.5670000199653 0  324.6287029687753 488.6012504015818 0  331.1748675330201 486.4543103455647 0  337.6593890460416 484.1278102064655 0  344.0773432429536 481.6235166997244 0  350.4238564271474 478.9433315480048 0  356.694109139292 476.0892900492477 0  362.88333985546 473.0635595140469 0  368.9868485575419 469.8684376402048 0  375.0000003153078 466.5063507640667 0  380.9182288257928 462.9798520074548 0  386.7370398729688 459.2916193419558 0  392.4520147244077 455.444453565817 0  398.0588135356345 451.4412761437442 0  403.5531785622926 447.285127045646 0  408.9309374414144 442.9791624087773 0  414.1880064015299 438.5266521049243 0  419.3203932989752 433.9309773069245 0  424.324200661095 429.1956279150535 0  429.1956286596235 424.3241998957182 0  433.9309780058756 419.3203925397119 0  438.5266527445345 414.1880056671062 0  442.9791630130591 408.9309367076756 0  447.2851276060475 403.5531778422888 0  451.4412766621026 398.0588128303826 0  455.4444540361634 392.4520140460735 0  459.2916197786263 386.7370392045948 0  462.9798524073514 380.9182281752347 0  466.5063511234856 374.9999996927758 0  469.8684379657123 368.9868479560565 0  473.0635598144817 362.8833392617846 0  476.0892903190255 356.6941085676214 0  478.9433317963513 350.4238558609745 0  481.6235169154735 344.0773427117675 0  484.12781039012 337.6593885555221 0  486.4543105028062 331.1748670749914 0  488.601250531677 324.6287025528375 0  490.5670001317469 318.0258660188321 0  492.3500665291326 311.3713716102628 0  493.949095695951 304.6702726271575 0  495.3628733416623 297.9276578347343 0  496.5903258712341 291.1486474470129 0  497.6305211749058 284.3383893426084 0  498.4826693388848 277.502055163614 0  499.1461232580606 270.6448362909296 0  499.6203791109319 263.7719400417897 0  499.9050767571306 256.8885855596534 0  499.9050767559877 243.1114143988867 0  499.6203791069493 236.2280598860241 0  499.1461232485393 229.3551635941651 0  498.4826693235677 222.4979446979962 0  497.6305211491849 215.6616104719064 0  496.5903258357701 208.8513523404629 0  495.3628732906988 202.0723419043604 0  493.9490956264813 195.3297270628552 0  492.3500664487791 188.6286280724281 0  490.5670000344809 181.9741336371959 0  488.6012504175981 175.3712970824318 0  486.4543103623226 168.8251325157939 0  484.1278102222298 162.3406109960628 0  481.6235167152198 155.9226567951971 0  478.9433315621651 149.5761436051346 0  476.0892900516498 143.3058908657982 0  473.063559513628 137.1166601437124 0  469.8684376406648 131.0131514433083 0  466.5063507675389 124.9999996907064 0  462.9798520124137 119.0817711822745 0  459.2916193464549 113.2629601339176 0  455.4444535642773 107.5479852733717 0  451.4412761528674 101.9411864767781 0  447.2851270583545 96.44682145403524 0  442.9791624165781 91.06906256805769 0  438.5266521117469 85.81199360630404 0  433.9309773156125 80.67960671046254 0  429.1956279150353 75.67579933888632 0  424.3241998888952 70.80437133373906 0  419.3203925223282 66.06902197812161 0  414.1880056411937 61.47334723289828 0  408.9309366751728 57.0208369601728 0  403.5531778009394 52.71487236176898 0  398.058812796452 48.55872331295853 0  392.4520140187753 44.55554594490843 0  386.7370391799677 40.70838020528396 0  380.9182281475119 37.02014757560744 0  374.9999996718656 33.49364886444181 0  368.9868479340393 30.13156202237255 0  362.8833392380029 26.93644017348339 0  356.6941085456942 23.91070967062674 0  350.4238558420009 21.0566681953261 0  344.0773426899492 18.37648307566465 0  337.6593885328982 15.87218960140942 0  331.1748670549786 13.54568949032341 0  324.6287025315056 11.39874946165088 0  318.0258660010876 9.432999863235466 0  311.3713716017894 7.649933468721599 0  304.6702726190621 6.050904302234756 0  297.9276578269805 4.637126656823085 0  291.148647441857 3.409674127905504 0  284.3383893425031 2.369478825079682 0  277.502055159398 1.517330660648639 0  270.6448362875833 0.853876741662134 0  263.7719400401456 0.3796208889774277 0  256.8885855592052 0.09492324285704967 0  243.1114143979462 0.09492324403817065 0  236.2280598850882 0.3796208931023841 0  229.3551635938215 0.8538767514891958 0  222.4979446968584 1.517330676558146 0  215.6616104703111 2.369478851036291 0  208.8513523382973 3.409674164591252 0  202.0723419066374 4.637126708856528 0  195.3297270659513 6.050904372824903 0  188.628628074828 7.649933550613184 0  181.9741336377093 9.432999965373938 0  175.3712970793675 11.39874958336037 0  168.8251325057572 13.54568964112298 0  162.340610986655 15.87218978129263 0  155.9226567874317 18.37648328793418 0  149.576143602509 21.05666843898663 0  143.3058908718157 23.91070994551046 0  137.1166601505524 26.93644048291054 0  131.0131514451933 30.13156235831508 0  124.9999996848412 33.49364923584736 0  119.0817711715717 37.0201479941652 0  113.2629601211624 40.70838066187849 0  107.5479852622251 44.55554644345162 0  101.9411864693332 48.55872385260452 0  96.44682143286516 52.71487295812284 0  91.06906254351222 57.02083760363669 0  85.81199358272519 61.4733479087879 0  80.67960667988106 66.06902271253972 0  75.67579930062769 70.80437212218331 0  70.80437129287643 75.67580015310926 0  66.06902193673014 80.67960752263491 0  61.47334718684866 85.81199441168215 0  57.02083692524275 91.0690633672404 0  52.71487232786438 96.44682224262129 0  48.55872328070024 101.941187247437 0  44.55554591578033 107.5479860232332 0  40.7083801742321 113.2629608675606 0  37.02014754791168 119.0817718975441 0  33.49364883372994 125.000000381329 0  30.13156199866361 131.0131521097709 0  26.9364401549829 137.1166607985551 0  23.91070965524918 143.3058914868915 0  21.05666818346614 149.576144185037 0  18.37648306853811 155.9226573275967 0  15.8721895918909 162.3406114925245 0  13.54568948170046 168.8251329701392 0  11.39874945301878 175.3712974960928 0  9.432999857087736 181.9741340206533 0  7.649933466342702 188.6286284076045 0  6.050904301250966 195.3297273853278 0  4.637126656808988 202.0723421730917 0  3.409674127767772 208.8513525589684 0  2.369478824521138 215.6616106615248 0  1.517330660909465 222.4979448382452 0  0.8538767414496533 229.355163714981 0  0.3796208887135322 236.2280599646376 0  0.09492324266324204 243.1114144478261 0  0.0949232442452228 256.8885856095658 0  0.3796208935834784 263.7719401236316 0  0.8538767530323526 270.6448364248016 0  1.517330679476544 277.5020553295092 0  2.369478854618649 284.3383895555228 0  3.409674170191892 291.1486476952655 0  4.6371267162381 297.9276581311522 0  6.050904381420935 304.6702729724059 0  7.649933562385399 311.3713719716595 0  9.43299997979841 318.0258664133013 0  11.3987495994252 324.6287029719946 0  13.54568965885832 331.174867545904 0  15.87218979367188 337.6593890464085 0  18.37648329843151 344.0773432384132 0  21.05666844777872 350.423856417535 0  23.91070995156048 356.6941091410045 0  26.93644048988043 362.8833398632205 0  30.13156235982007 368.9868485575877 0  33.49364924138357 375.0000003247478 0  37.0201480006036 380.9182288389023 0  40.70838066758398 386.7370398875706 0  44.55554644477201 392.4520147396792 0  48.55872386086904 398.0588135419111 0  52.71487295981296 403.5531785693063 0  57.02083760525949 408.9309374584583 0  61.47334790862246 414.1880064170849 0  66.06902271205095 419.320393319588 0  70.80437211216579 424.3242006890749 0  75.67580013809859 429.195628692521 0  80.6796075127923 433.930978054209 0  85.81199439754931 438.5266528008431 0  91.06906334717917 442.9791630582355 0  96.44682221438322 447.2851276501571 0  101.9411872243843 451.441276702356 0  107.5479859945825 455.4444540643537 0  113.2629608446994 459.2916198108319 0  119.0817718768376 462.9798524393601 0  125.0000003647644 466.5063511567065 0  131.0131521012763 469.8684379967393 0  137.1166607840049 473.0635598376539 0  143.3058914748804 476.0892903390826 0  149.5761441732679 478.9433318113714 0  155.9226573130112 481.6235169255377 0  162.3406114779862 484.1278104026658 0  168.8251329570439 486.4543105138039 0  175.3712974805475 488.601250542119 0  181.9741340135204 490.5670001408953 0  188.6286284005059 492.3500665318597 0  195.3297273788229 493.9490956972913 0  202.0723421640089 495.3628733414168 0  208.8513525529672 496.5903258712308 0  215.6616106544547 497.6305211744985 0  222.4979448327038 498.4826693384772 0  229.3551637102845 499.1461232581612 0  236.2280599621369 499.6203791111485 0  243.1114144470173 499.9050767573145 0  155.2373389820306 474.8197567317462 0  25.36256300907667 153.9152755065208 0  432.3709625126712 412.6214396304305 0  6.013151705810699 246.637913163471 0  246.6379131630491 493.986848294322 0  338.6995838441862 22.68244767887072 0  477.3175523131281 338.6995838660569 0  493.9868482700757 246.6379131399102 0  246.6201155078769 6.218451882810491 0  417.6179310263282 72.7156044707053 0  102.2232990934413 445.0100869616822 0  63.66330858966404 92.20354579482142 0  391.3105220491464 50.73522820883105 0  72.79295043967942 418.0702734974704 0  448.290574428537 108.25674339002 0  402.4604651193511 440.7462829841712 0  97.55317348421397 59.11376320116034 0  136.7376477664901 33.58246472647134 0  363.3288394375288 465.6947312928271 0  44.0678766556007 381.0860953771871 0  469.6905266180034 142.3890690100806 0  22.68244791668644 338.6995843487432 0  338.699584349159 477.317552078365 0  173.389488083762 18.6681884918202 0  483.4809734778481 179.7121987795732 0  13.50237455842738 306.4709525540879 0  305.9825168523021 487.24416992
[...]
<PointData  Vectors="f_12"> 
<DataArray  type="Float64"  Name="f_12"  NumberOfComponents="3" format="ascii">0.0000000000000000e+00 5.5362797689714124e-02 2.2984226541884725e-02  0.0000000000000000e+00 2.7244122843177756e-02 5.9423093274469471e-02  0.0000000000000000e+00 3.4302833490046941e-01 7.7239822850972886e-03  0.0000000000000000e+00 1.7971724860413766e-02 4.5298025481855403e-01  0.0000000000000000e+00 3.4494535232879098e-01 7.7290583050518974e-03  0.0000000000000000e+00 3.4597304216086811e-01 7.7321032920382770e-03  0.0000000000000000e+00 3.4666054784640987e-01 7.7336095717866404e-03  0.0000000000000000e+00 3.4659408400260100e-01 7.7343188053951052e-03  0.0000000000000000e+00 3.4596137157603224e-01 7.7327589721999544e-03  0.0000000000000000e+00 3.4473023973927142e-01 7.7289803578496370e-03  0.0000000000000000e+00 3.4294469763522989e-01 7.7237215233372809e-03  0.0000000000000000e+00 3.4069128465142551e-01 7.7175069274640360e-03  0.0000000000000000e+00 3.3794574848562919e-01 7.7102838281706190e-03  0.0000000000000000e+00 3.3468788551599354e-01 7.7020492804193508e-03  0.0000000000000000e+00 3.3063979414123751e-01 7.6934636319648244e-03  0.0000000000000000e+00 3.2682186068813318e-01 7.6849363021990877e-03  0.0000000000000000e+00 3.2175555001065070e-01 7.6762373310091210e-03  0.0000000000000000e+00 3.1689652509156863e-01 7.6699262555069564e-03  0.0000000000000000e+00 3.1159292216137885e-01 7.6655299624676229e-03  0.0000000000000000e+00 3.0599221792485587e-01 7.6614417293699652e-03  0.0000000000000000e+00 3.0022808177922261e-01 7.6595338657728437e-03  0.0000000000000000e+00 2.9404977236597890e-01 7.6643080221649035e-03  0.0000000000000000e+00 2.8764797872365244e-01 7.6734964807630233e-03  0.0000000000000000e+00 2.8128331566179265e-01 7.6848233584636584e-03  0.0000000000000000e+00 2.7465395567704048e-01 7.7012291328436748e-03  0.0000000000000000e+00 2.6766818656756247e-01 7.7239153346955330e-03  0.0000000000000000e+00 2.6029083287738836e-01 7.7525217184010306e-03  0.0000000000000000e+00 2.5306498154032336e-01 7.7858010457247176e-03  0.0000000000000000e+00 2.4574865273549895e-01 7.8261818436944162e-03  0.0000000000000000e+00 2.3810467671009553e-01 7.8763631011304139e-03  0.0000000000000000e+00 2.3067913531039871e-01 7.9351960402932638e-03  0.0000000000000000e+00 2.2320713732429898e-01 8.0053815884634037e-03  0.0000000000000000e+00 2.1571920113590931e-01 8.0878497339649125e-03  0.0000000000000000e+00 2.0830367593650312e-01 8.1798471775087808e-03  0.0000000000000000e+00 2.0065645352596517e-01 8.2879905540750500e-03  0.0000000000000000e+00 1.9305666630636367e-01 8.4101080522489460e-03  0.0000000000000000e+00 1.8562789494953597e-01 8.5421507505337706e-03  0.0000000000000000e+00 1.7819815734444003e-01 8.6940734243753579e-03  0.0000000000000000e+00 1.7084551805842271e-01 8.8696275743504575e-03  0.0000000000000000e+00 1.6376159287808265e-01 9.0622117575716830e-03  0.0000000000000000e+00 1.5689809949999170e-01 9.2733252524099599e-03  0.0000000000000000e+00 1.5000664913013090e-01 9.5123518657207005e-03  0.0000000000000000e+00 1.4311801001997504e-01 9.7791572703701188e-03  0.0000000000000000e+00 1.3649780136840980e-01 1.0071788526863782e-02  0.0000000000000000e+00 1.3008474656143112e-01 1.0396564321783271e-02  0.0000000000000000e+00 1.2388831813853489e-01 1.0753675692044804e-02  0.0000000000000000e+00 1.1791513439414665e-01 1.1145998787602902e-02  0.0000000000000000e+00 1.1215838049711091e-01 1.1578602631499946e-02  0.0000000000000000e+00 1.0645027744475735e-01 1.2061540101796969e-02  0.0000000000000000e+00 1.0098534863986355e-01 1.2586679459318835e-02  0.0000000000000000e+00 9.5807378607526694e-02 1.3161886299952696e-02  0.0000000000000000e+00 9.0863462390533126e-02 1.3789295566561445e-02  0.0000000000000000e+00 8.6146852981352662e-02 1.4478950425638891e-02  0.0000000000000000e+00 8.1560398473461332e-02 1.5242951218743301e-02  0.0000000000000000e+00 7.7168796039834855e-02 1.6076765334094179e-02  0.0000000000000000e+00 7.3031656006158463e-02 1.6983146952364501e-02  0.0000000000000000e+00 6.9106210238522342e-02 1.7974230550313657e-02  0.0000000000000000e+00 6.5400180327374366e-02 1.9060126506171268e-02  0.0000000000000000e+00 6.1850114380291997e-02 2.0232003425818827e-02  0.0000000000000000e+00 5.8558326966444488e-02 2.1490651321432304e-02  0.0000000000000000e+00 5.2311204239851090e-02 2.4493870650264329e-02  0.0000000000000000e+00 4.9502535924279889e-02 2.6166576087377609e-02  0.0000000000000000e+00 4.6911309850367421e-02 2.7973531419529209e-02  0.0000000000000000e+00 4.4395067701414305e-02 2.9955736941970665e-02  0.0000000000000000e+00 4.2042614252921509e-02 3.2128853334963646e-02  0.0000000000000000e+00 3.9810569152602532e-02 3.4476023816230460e-02  0.0000000000000000e+00 3.7757142626703544e-02 3.7022874396227104e-02  0.0000000000000000e+00 3.5838456548383031e-02 3.9771445674519228e-02  0.0000000000000000e+00 3.4036521233258593e-02 4.2756772928362219e-02  0.0000000000000000e+00 3.2343953721078622e-02 4.5997962433060792e-02  0.0000000000000000e+00 3.0748928286306595e-02 4.9509937187295648e-02  0.0000000000000000e+00 2.9285072410923364e-02 5.3280043015722929e-02  0.0000000000000000e+00 2.7923374661516266e-02 5.7336486950933567e-02  0.0000000000000000e+00 2.6660288018892284e-02 6.1705016731719332e-02  0.0000000000000000e+00 2.5476571622849838e-02 6.6419287009704273e-02  0.0000000000000000e+00 2.4375299133417159e-02 7.1494953086648425e-02  0.0000000000000000e+00 2.3355608752646327e-02 7.6924871651896362e-02  0.0000000000000000e+00 2.2423126217611732e-02 8.2704403575729751e-02  0.0000000000000000e+00 2.1569930942398230e-02 8.8853393505097758e-02  0.0000000000000000e+00 2.0783843437498367e-02 9.5416116925138766e-02  0.0000000000000000e+00 2.0050496909260456e-02 1.0245736186030253e-01  0.0000000000000000e+00 1.9383421030015991e-02 1.0991993149119085e-01  0.0000000000000000e+00 1.8773551696057513e-02 1.1783593366276549e-01  0.0000000000000000e+00 1.8227929086360419e-02 1.2611183723101152e-01  0.0000000000000000e+00 1.7740049859654057e-02 1.3478909148622961e-01  0.0000000000000000e+00 1.7304177968758445e-02 1.4389717349584288e-01  0.0000000000000000e+00 1.6912681330010847e-02 1.5348282266427329e-01  0.0000000000000000e+00 1.6564787473524498e-02 1.6357292387730407e-01  0.0000000000000000e+00 1.6257153685027038e-02 1.7410541827702333e-01  0.0000000000000000e+00 1.5995923331332745e-02 1.8503180522692902e-01  0.0000000000000000e+00 1.5778120065724367e-02 1.9624163752861762e-01  0.0000000000000000e+00 1.5602787239552541e-02 2.0770513536164550e-01  0.0000000000000000e+00 1.5465882196431255e-02 2.1950339697765475e-01  0.0000000000000000e+00 1.5364263589470328e-02 2.3151079496488855e-01  0.0000000000000000e+00 1.5295918400729953e-02 2.4368823403932161e-01  0.0000000000000000e+00 1.5256542476073944e-02 2.5635720052779759e-01  0.0000000000000000e+00 1.5250022241129630e-02 2.6924369464139908e-01  0.0000000000000000e+00 1.5273529841540295e-02 2.8194781960379189e-01  0.0000000000000000e+00 1.5324482741589068e-02 2.9484468666483649e-01  0.0000000000000000e+00 1.5403909797457493e-02 3.0776207558451601e-01  0.0000000000000000e+00 1.5503022785533765e-02 3.2006242988275324e-01  0.0000000000000000e+00 1.5628397080914777e-02 3.3224534368139497e-01  0.0000000000000000e+00 1.5766884008176212e-02 3.4409316048462746e-01  0.0000000000000000e+00 1.5923138618505417e-02 3.5570339570812765e-01  0.0000000000000000e+00 1.6091564603848314e-02 3.6695501785174561e-01  0.0000000000000000e+00 1.6271828699226103e-02 3.7785919059287276e-01  0.0000000000000000e+00 1.6458766162842881e-02 3.8826717084260265e-01  0.0000000000000000e+00 1.6648906120618017e-02 3.9807339403823461e-01  0.0000000000000000e+00 1.6841912567631557e-02 4.0740280848109883e-01  0.0000000000000000e+00 1.7033439180281967e-02 4.1616865064995134e-01  0.0000000000000000e+00 1.7216599035304508e-02 4.2408990777976285e-01  0.0000000000000000e+00 1.7387500933902678e-02 4.3109822662165675e-01  0.0000000000000000e+00 1.7541831909315551e-02 4.3712819845557155e-01  0.0000000000000000e+00 1.7683732075589920e-02 4.4252026515393195e-01  0.0000000000000000e+00 1.7803019769931268e-02 4.4690224180508181e-01  0.0000000000000000e+00 1.7902140893662689e-02 4.5046178189499742e-01  0.0000000000000000e+00 1.8005774699994193e-02 4.5411805803141497e-01  0.0000000000000000e+00 1.8071101951417957e-02 4.5656143744952032e-01  0.0000000000000000e+00 1.8041348370472176e-02 4.5540581693650367e-01  0.0000000000000000e+00 1.8011924893199291e-02 4.5439569968445148e-01  0.0000000000000000e+00 1.7962109604298986e-02 4.5265189962701985e-01  0.0000000000000000e+00 1.7885165757146163e-02 4.4988092435731997e-01  0.0000000000000000e+00 1.7781606500770784e-02 4.4611785508525753e-01  0.0000000000000000e+00 1.7664790694325978e-02 4.4176518840250378e-01  0.0000000000000000e+00 1.7528575129602864e-02 4.3655521566432332e-01  0.0000000000000000e+00 1.7402138513230865e-02 4.3163501773326213e-01  0.0000000000000000e+00 1.7228340388640906e-02 4.2447718646401800e-01  0.0000000000000000e+00 1.7057179984999615e-02 4.1715146716109758e-01  0.0000000000000000e+00 1.6885192807396667e-02 4.0931698969093744e-01  0.0000000000000000e+00 1.6714662851834147e-02 4.0133612708149846e-01  0.0000000000000000e+00 1.6542163914718532e-02 3.9273202491421993e-01  0.0000000000000000e+00 1.6368883331696598e-02 3.8339390409178697e-01  0.0000000000000000e+00 1.6205808094545693e-02 3.7399868080057780e-01  0.0000000000000000e+00 1.6050812303321567e-02 3.6438745630455344e-01  0.0000000000000000e+00 1.5905361153626282e-02 3.5459823824529557e-01  0.0000000000000000e+00 1.5770973351754151e-02 3.4461060589698267e-01  0.0000000000000000e+00 1.5649107220824032e-02 3.3437019545519120e-01  0.0000000000000000e+00 1.5540458724725391e-02 3.2394275808445566e-01  0.0000000000000000e+00 1.5446879066451737e-02 3.1352454476756503e-01  0.0000000000000000e+00 1.5369978923876417e-02 3.0305968593379384e-01  0.0000000000000000e+00 1.5310162054335372e-02 2.9251117850920844e-01  0.0000000000000000e+00 1.5269166977750229e-02 2.8194676255371920e-01  0.0000000000000000e+00 1.5247405647217938e-02 2.7140173399409045e-01  0.0000000000000000e+00 1.5245857866987716e-02 2.6097365425852481e-01  0.0000000000000000e+00 1.5264429362527837e-02 2.5070673222589962e-01  0.0000000000000000e+00 1.5303031963151444e-02 2.4066959753996167e-01  0.0000000000000000e+00 1.5361488543093596e-02 2.3089615241983941e-01  0.0000000000000000e+00 1.5439124791948004e-02 2.2143227609461202e-01  0.0000000000000000e+00 1.5536631976071127e-02 2.1220580229482430e-01  0.0000000000000000e+00 1.5657340676526740e-02 2.0319214215141027e-01  0.0000000000000000e+00 1.5802453535371078e-02 1.9426592638950471e-01  0.0000000000000000e+00 1.5973214806551606e-02 1.8553188508571089e-01  0.0000000000000000e+00 1.6170472414261238e-02 1.7700076727436934e-01  0.0000000000000000e+00 1.6393003620354108e-02 1.6872588510408240e-01  0.0000000000000000e+00 1.6639834487648546e-02 1.6074059349889047e-01  0.0000000000000000e+00 1.6910489340790712e-02 1.5309424209637390e-01  0.0000000000000000e+00 1.7210175803129658e-02 1.4563967017959467e-01  0.0000000000000000e+00 1.7534177917782338e-02 1.3851258428150870e-01  0.0000000000000000e+00 1.7881208633261664e-02 1.3176998668769149e-01  0.0000000000000000e+00 1.8262484380894069e-02 1.2516601743714600e-01  0.0000000000000000e+00 1.8687052882194837e-02 1.1871912035228385e-01  0.0000000000000000e+00 1.9151415754156336e-02 1.1246935509393648e-01  0.0000000000000000e+00 1.9642228692825534e-02 1.0657964645203355e-01  0.0000000000000000e+00 2.0189470985937624e-02 1.0076045971397950e-01  0.0000000000000000e+00 2.0764393710878501e-02 9.5316247391625891e-02  0.0000000000000000e+00 2.1373934445421357e-02 9.0094021299967811e-02  0.0000000000000000e+00 2.2028360352874428e-02 8.5185568740467038e-02  0.0000000000000000e+00 2.2736468183508177e-02 8.0403386346776545e-02  0.0000000000000000e+00 2.3514008335737760e-02 7.5794054752098605e-02  0.0000000000000000e+00 2.4353457412654378e-02 7.1382970420928546e-02  0.0000000000000000e+00 2.5253779298623234e-02 6.7184952844238796e-02  0.0000000000000000e+00 2.6215113861602943e-02 6.3197695244583948e-02  0.0000000000000000e+00 2.8345075925151651e-02 5.5846336746922597e-02  0.0000000000000000e+00 2.9527483634123750e-02 5.2448990639568163e-02  0.0000000000000000e+00 3.0812187150508791e-02 4.9222858446157571e-02  0.0000000000000000e+00 3.2200520409057888e-02 4.6151044311945569e-02  0.0000000000000000e+00 3.3693733557253934e-02 4.3251446413565209e-02  0.0000000000000000e+00 3.5287886923293106e-02 4.0523611354728907e-02  0.0000000000000000e+00 3.6990860822915507e-02 3.7966259084762137e-02  0.0000000000000000e+00 3.8822851939284593e-02 3.5559081630285282e-02  0.0000000000000000e+00 4.0809643412845015e-02 3.3290668040580888e-02  0.0000000000000000e+00 4.2961555741421686e-02 3.1153893259851493e-02  0.0000000000000000e+00 4.5275316474257456e-02 2.9159864636192898e-02  0.0000000000000000e+00 4.7734010602149934e-02 2.7299972408334979e-02  0.0000000000000000e+00 5.0358743789370275e-02 2.5577024400359534e-02  0.0000000000000000e+00 5.3194791660047216e-02 2.3966715884979891e-02  0.0000000000000000e+00 5.6250524619503098e-02 2.2467051230322860e-02  0.0000000000000000e+00 5.9551213806181745e-02 2.1073820196194634e-02  0.0000000000000000e+00 6.3071998537882090e-02 1.9784698954266423e-02  0.0000000000000000e+00 6.6784489558130267e-02 1.8596421382406223e-02  0.0000000000000000e+00 7.0789939519395523e-02 1.7505940414919614e-02  0.0000000000000000e+00 7.5080633811548586e-02 1.6491643979089723e-02  0.0000000000000000e+00 7.9705935670410760e-02 1.5560620784190361e-02  0.0000000000000000e+00 8.4599929267495835e-02 1.4707397558248334e-02  0.0000000000000000e+00 8.9754091113169246e-02 1.3927261140956453e-02  0.0000000000000000e+00 9.5236939975447937e-02 1.3216099650072781e-02  0.0000000000000000e+00 1.0108507130264241e-01 1.2566956753659670e-02  0.0000000000000000e+00 1.0732442937119957e-01 1.1974968882126851e-02  0.0000000000000000e+00 1.1390710380561143e-01 1.1435245859466911e-02  0.0000000000000000e+00 1.2072955895428335e-01 1.0950268861492630e-02  0.0000000000000000e+00 1.2791988441346744e-01 1.0513632240502419e-02  0.0000000000000000e+00 1.3545956186113664e-01 1.0119773202848195e-02  0.0000000000000000e+00 1.4338429161382732e-01 9.7681184644958750e-03  0.0000000000000000e+00 1.5163203844041009e-01 9.4531419934284003e-03  0.0000000000000000e+00 1.6010460762939230e-01 9.1721586720013518e-03  0.0000000000000000e+00 1.6884027125201395e-01 8.9237920972852370e-03  0.0000000000000000e+00 1.7791209988667728e-01 8.7049788588714535e-03  0.0000000000000000e+00 1.8715302970055742e-01 8.5164752853548586e-03  0.0000000000000000e+00 1.9657677291686576e-01 8.3541965152327466e-03  0.0000000000000000e+00 2.0623775771330621e-01 8.2099993918491512e-03  0.0000000000000000e+00 2.1581973298834548e-01 8.0883611663174326e-03  0.0000000000000000e+00 2.2537974822812437e-01 7.9887997359770861e-03  0.0000000000000000e+00 2.3502686906949913e-01 7.9056114091134912e-03  0.0000000000000000e+00 2.4462938907195955e-01 7.8383908460735591e-03  0.0000000000000000e+00 2.5424307182005468e-01 7.7861038364861598e-03  0.0000000000000000e+00 2.6342484997092247e-01 7.7436195540058006e-03  0.0000000000000000e+00 2.7247631083919599e-01 7.7128168028628439e-03  0.0000000000000000e+00 2.8109138283042173e-01 7.6909978985951581e-03  0.0000000000000000e+00 2.8927426093506681e-01 7.6738874582726758e-03  0.0000000000000000e+00 2.9709607310094793e-01 7.6630511226229592e-03  0.0000000000000000e+00 3.0439028628468540e-01 7.6632796864599916e-03  0.0000000000000000e+00 3.1122346561563802e-01 7.6672241922937740e-03  0.0000000000000000e+00 3.1773941387050691e-01 7.6728965163447554e-03  0.0000000000000000e+00 3.2357235339026008e-01 7.6814799897693574e-03  0.0000000000000000e+00 3.2872390080961145e-01 7.6923055094864990e-03  0.0000000000000000e+00 3.3327442337779822e-01 7.7013029727699073e-03  0.0000000000000000e+00 3.3717008885254379e-01 7.7098784993770509e-03  0.0000000000000000e+00 3.4029841832705382e-01 7.7175745719739149e-03  0.0000000000000000e+00 2.4761596827202406e-01 7.8225369536597256e-03  0.0000000000000000e+00 1.7697000646514843e-02 1.3535130631899886e-01  0.0000000000000000e+00 2.0238659315085875e-01 8.2641769738903328e-03  0.0000000000000000e+00 2.6812509210727611e-02 6.0986879659714451e-02  0.0000000000000000e+00 3.3853455259655718e-01 7.7164045348051156e-03  0.0000000000000000e+00 1.5803527811131542e-02 3.4637621452114953e-01  0.0000000000000000e+00 1.1419538055671974e-01 1.1421658166825620e-02  0.0000000000000000e+00 5.3614684738810689e-02 2.3795599904561211e-02  0.0000000000000000e+00 1.7851390268260540e-02 4.4830047269594681e-01  0.0000000000000000e+00 1.6147430107024133e-02 1.7860727547857094e-01  0.0000000000000000e+00 1.6337070997744538e-01 9.0755745779590984e-03  0.0000000000000000e+00 1.5420202058150173e-02 2.2420342167985358e-01  0.0000000000000000e+00 1.5332599728624951e-02 2.3726260343825833e-01  0.0000000000000000e+00 1.1708622616824561e-01 1.1200880892608161e-02  0.0000000000000000e+00 1.9091442210429580e-02 1.1360678335400815e-01  0.0000000000000000e+00 2.4759563478715318e-01 7.8182166788104395e-03  0.0000000000000000e+00 1.5332054730538851e-02 2.9554647466965100e-01  0.0000000000000000e+00 1.6076231489562609e-02 3.6553225515260535e-01  0.0000000000000000e+00 2.9405886458152747e-01 7.6683574213898117e-03  0.0000000000000000e+00 7.7556637678847504e-02 1.5978724911759293e-02  0.0000000000000000e+00 2.3837527452188621e-02 7.4270666552875078e-02  0.0000000000000000e+00 5.1774517671901284e-02 2.4744376088756476e-02  0.0000000000000000e+00 3.1660243484234962e-01 7.6730202300714419e-03  0.0000000000000000e+00 1.7016712987872461e-02 4.1496392848825597e-01  0.0000000000000000e+00 3.1329050159228655e-02 4.8176582574036363e-02  0.0000000000000000e+00 3.9906586236012148e-02 3.4296133821319949e-02  0.0000000000000000e+00 3.3621511437250934e-01 7.7102259036256650e-03  0.0000000000000000e+00 2.9818406926137359e-01 7.6673526265949483e-03  0.0000000000000000e+00 2.0541950403821802e-02 9.7416279464498171e-02  0.0000000000000000e+00 1.6844023949924476e-02 4.0706677868093277e-01  0.0000000000000000e+00 8.3346318323589630e-02 1.4933625903256963e-02  0.0000000000000000e+00 1.6040592510315679e-01 9.1643579307393221e-03  0.0000000000000000e+00 1.7708928316276705e-02 4.4311079429341804e-01  0.0000000000000000e+00 3.8547478508223966e-02 3.5998581269795722e-02  0.0000000000000000e+00 3.3024697645705481e-02 4.4521615400460367e-02  0.0000000000000000e+00 3.4316717960698329e-01 7.7285525543747142e-03  0.0000000000000000e+00 1.5292659115836752e-02 2.8578000136508991e-01  0.0000000000000000e+00 1.6318631238491303e-02 1.7157559308888140e-01  0.0000000000000000e+00 3.2336656098397543e-01 7.6854830811007718e-03  0.0000000000000000e+00 2.0926902098481118e-01 8.1705388571804358e-03  0.0000000000000000e+00 2.3294288534102748e-02 7.7086947364991831e-02  0.0000000000000000e+00 1.7478165299249480e-02 4.3424450616425903e-01  0.0000000000000000e+00 6.7323974871085143e-02 1.8479635006293287e-02  0.0000000000000000e+00 2.6776261491740300e-01 7.7273959005891308e-03  0.0000000000000000e+00 9.7659435395925268e-02 1.2947100175462019e-02  0.0000000000000000e+00 1.7907508936279157e-02 4.5037354856129236e-01  0.0000000000000000e+00 1.6299619797695446e-02 3.7901242469524327e-01  0.0000000000000000e+00 4.5449209265427885e-02 2.9086246327973186e-02  0.0000000000000000e+00 1.7118668297892544e-02 1.4834724447550898e-01  0.0000000000000000e+00 2.7459812925828170e-01 7.7091901340441138e-03  0.0000000000000000e+00 1.7995501289266824e-01 8.6585191015555382e-03  0.0000000000000000e+00 9.8129651076624316e-02 1.2881496984074037e-02  0.0000000000000000e+00 1.5565965984463987e-02 3.2580488241361094e-01  0.0000000000000000e+00 6.5114748541396789e-02 1.9111104844216641e-02  0.0000000000000000e+00 1.8978585210232518e-02 1.1479859271827875e-01  0.0000000000000000e+00 1.3871598959636208e-01 9.9703245795218689e-03  0.0000000000