<?xml version="1.0"?>
<VTKFile type="UnstructuredGrid"  version="0.1"  >
<UnstructuredGrid>
<Piece  NumberOfPoints="4940" NumberOfCells="9650">
<Points>
<DataArray  type="Float64"  NumberOfComponents="3"  format="ascii">500 250 0  0 250 0  250 500 0  250 0 0  256.8885856082646 499.9050767557906 0  263.7719401218049 499.6203791065173 0  270.6448364229772 499.1461232471188 0  277.5020553257866 498.4826693209355 0  284.3383895508592 497.6305211460281 0  291.1486476865662 496.5903258312597 0  297.9276581259182 495.3628732847843 0  304.6702729675493 493.9490956196674 0  311.3713719748657 492.3500664368026 0  318.0258664141369 490.5670000199653 0  324.6287029687753 488.6012504015818 0  331.1748675330201 486.4543103455647 0  337.6593890460416 484.1278102064655 0  344.0773432429536 481.6235166997244 0  350.4238564271474 478.9433315480048 0  356.694109139292 476.0892900492477 0  362.88333985546 473.0635595140469 0  368.9868485575419 469.8684376402048 0  375.0000003153078 466.5063507640667 0  380.9182288257928 462.9798520074548 0  386.7370398729688 459.2916193419558 0  392.4520147244077 455.444453565817 0  398.0588135356345 451.4412761437442 0  403.5531785622926 447.285127045646 0  408.9309374414144 442.9791624087773 0  414.1880064015299 438.5266521049243 0  419.3203932989752 433.9309773069245 0  424.324200661095 429.1956279150535 0  429.1956286596235 424.3241998957182 0  433.9309780058756 419.3203925397119 0  438.5266527445345 414.1880056671062 0  442.9791630130591 408.9309367076756 0  447.2851276060475 403.5531778422888 0  451.4412766621026 398.0588128303826 0  455.4444540361634 392.4520140460735 0  459.2916197786263 386.7370392045948 0  462.9798524073514 380.9182281752347 0  466.5063511234856 374.9999996927758 0  469.8684379657123 368.9868479560565 0  473.0635598144817 362.8833392617846 0  476.0892903190255 356.6941085676214 0  478.9433317963513 350.4238558609745 0  481.6235169154735 344.0773427117675 0  484.12781039012 337.6593885555221 0  486.4543105028062 331.1748670749914 0  488.601250531677 324.6287025528375 0  490.5670001317469 318.0258660188321 0  492.3500665291326 311.3713716102628 0  493.949095695951 304.6702726271575 0  495.3628733416623 297.9276578347343 0  496.5903258712341 291.1486474470129 0  497.6305211749058 284.3383893426084 0  498.4826693388848 277.502055163614 0  499.1461232580606 270.6448362909296 0  499.6203791109319 263.7719400417897 0  499.9050767571306 256.8885855596534 0  499.9050767559877 243.1114143988867 0  499.6203791069493 236.2280598860241 0  499.1461232485393 229.3551635941651 0  498.4826693235677 222.4979446979962 0  497.6305211491849 215.6616104719064 0  496.5903258357701 208.8513523404629 0  495.3628732906988 202.0723419043604 0  493.9490956264813 195.3297270628552 0  492.3500664487791 188.6286280724281 0  490.5670000344809 181.9741336371959 0  488.6012504175981 175.3712970824318 0  486.4543103623226 168.8251325157939 0  484.1278102222298 162.3406109960628 0  481.6235167152198 155.9226567951971 0  478.9433315621651 149.5761436051346 0  476.0892900516498 143.3058908657982 0  473.063559513628 137.1166601437124 0  469.8684376406648 131.0131514433083 0  466.5063507675389 124.9999996907064 0  462.9798520124137 119.0817711822745 0  459.2916193464549 113.2629601339176 0  455.4444535642773 107.5479852733717 0  451.4412761528674 101.9411864767781 0  447.2851270583545 96.44682145403524 0  442.9791624165781 91.06906256805769 0  438.5266521117469 85.81199360630404 0  433.9309773156125 80.67960671046254 0  429.1956279150353 75.67579933888632 0  424.3241998888952 70.80437133373906 0  419.3203925223282 66.06902197812161 0  414.1880056411937 61.47334723289828 0  408.9309366751728 57.0208369601728 0  403.5531778009394 52.71487236176898 0  398.058812796452 48.55872331295853 0  392.4520140187753 44.55554594490843 0  386.7370391799677 40.70838020528396 0  380.9182281475119 37.02014757560744 0  374.9999996718656 33.49364886444181 0  368.9868479340393 30.13156202237255 0  362.8833392380029 26.93644017348339 0  356.6941085456942 23.91070967062674 0  350.4238558420009 21.0566681953261 0  344.0773426899492 18.37648307566465 0  337.6593885328982 15.87218960140942 0  331.1748670549786 13.54568949032341 0  324.6287025315056 11.39874946165088 0  318.0258660010876 9.432999863235466 0  311.3713716017894 7.649933468721599 0  304.6702726190621 6.050904302234756 0  297.9276578269805 4.637126656823085 0  291.148647441857 3.409674127905504 0  284.3383893425031 2.369478825079682 0  277.502055159398 1.517330660648639 0  270.6448362875833 0.853876741662134 0  263.7719400401456 0.3796208889774277 0  256.8885855592052 0.09492324285704967 0  243.1114143979462 0.09492324403817065 0  236.2280598850882 0.3796208931023841 0  229.3551635938215 0.8538767514891958 0  222.4979446968584 1.517330676558146 0  215.6616104703111 2.369478851036291 0  208.8513523382973 3.409674164591252 0  202.0723419066374 4.637126708856528 0  195.3297270659513 6.050904372824903 0  188.628628074828 7.649933550613184 0  181.9741336377093 9.432999965373938 0  175.3712970793675 11.39874958336037 0  168.8251325057572 13.54568964112298 0  162.340610986655 15.87218978129263 0  155.9226567874317 18.37648328793418 0  149.576143602509 21.05666843898663 0  143.3058908718157 23.91070994551046 0  137.1166601505524 26.93644048291054 0  131.0131514451933 30.13156235831508 0  124.9999996848412 33.49364923584736 0  119.0817711715717 37.0201479941652 0  113.2629601211624 40.70838066187849 0  107.5479852622251 44.55554644345162 0  101.9411864693332 48.55872385260452 0  96.44682143286516 52.71487295812284 0  91.06906254351222 57.02083760363669 0  85.81199358272519 61.4733479087879 0  80.67960667988106 66.06902271253972 0  75.67579930062769 70.80437212218331 0  70.80437129287643 75.67580015310926 0  66.06902193673014 80.67960752263491 0  61.47334718684866 85.81199441168215 0  57.02083692524275 91.0690633672404 0  52.71487232786438 96.44682224262129 0  48.55872328070024 101.941187247437 0  44.55554591578033 107.5479860232332 0  40.7083801742321 113.2629608675606 0  37.02014754791168 119.0817718975441 0  33.49364883372994 125.000000381329 0  30.13156199866361 131.0131521097709 0  26.9364401549829 137.1166607985551 0  23.91070965524918 143.3058914868915 0  21.05666818346614 149.576144185037 0  18.37648306853811 155.9226573275967 0  15.8721895918909 162.3406114925245 0  13.54568948170046 168.8251329701392 0  11.39874945301878 175.3712974960928 0  9.432999857087736 181.9741340206533 0  7.649933466342702 188.6286284076045 0  6.050904301250966 195.3297273853278 0  4.637126656808988 202.0723421730917 0  3.409674127767772 208.8513525589684 0  2.369478824521138 215.6616106615248 0  1.517330660909465 222.4979448382452 0  0.8538767414496533 229.355163714981 0  0.3796208887135322 236.2280599646376 0  0.09492324266324204 243.1114144478261 0  0.0949232442452228 256.8885856095658 0  0.3796208935834784 263.7719401236316 0  0.8538767530323526 270.6448364248016 0  1.517330679476544 277.5020553295092 0  2.369478854618649 284.3383895555228 0  3.409674170191892 291.1486476952655 0  4.6371267162381 297.9276581311522 0  6.050904381420935 304.6702729724059 0  7.649933562385399 311.3713719716595 0  9.43299997979841 318.0258664133013 0  11.3987495994252 324.6287029719946 0  13.54568965885832 331.174867545904 0  15.87218979367188 337.6593890464085 0  18.37648329843151 344.0773432384132 0  21.05666844777872 350.423856417535 0  23.91070995156048 356.6941091410045 0  26.93644048988043 362.8833398632205 0  30.13156235982007 368.9868485575877 0  33.49364924138357 375.0000003247478 0  37.0201480006036 380.9182288389023 0  40.70838066758398 386.7370398875706 0  44.55554644477201 392.4520147396792 0  48.55872386086904 398.0588135419111 0  52.71487295981296 403.5531785693063 0  57.02083760525949 408.9309374584583 0  61.47334790862246 414.1880064170849 0  66.06902271205095 419.320393319588 0  70.80437211216579 424.3242006890749 0  75.67580013809859 429.195628692521 0  80.6796075127923 433.930978054209 0  85.81199439754931 438.5266528008431 0  91.06906334717917 442.9791630582355 0  96.44682221438322 447.2851276501571 0  101.9411872243843 451.441276702356 0  107.5479859945825 455.4444540643537 0  113.2629608446994 459.2916198108319 0  119.0817718768376 462.9798524393601 0  125.0000003647644 466.5063511567065 0  131.0131521012763 469.8684379967393 0  137.1166607840049 473.0635598376539 0  143.3058914748804 476.0892903390826 0  149.5761441732679 478.9433318113714 0  155.9226573130112 481.6235169255377 0  162.3406114779862 484.1278104026658 0  168.8251329570439 486.4543105138039 0  175.3712974805475 488.601250542119 0  181.9741340135204 490.5670001408953 0  188.6286284005059 492.3500665318597 0  195.3297273788229 493.9490956972913 0  202.0723421640089 495.3628733414168 0  208.8513525529672 496.5903258712308 0  215.6616106544547 497.6305211744985 0  222.4979448327038 498.4826693384772 0  229.3551637102845 499.1461232581612 0  236.2280599621369 499.6203791111485 0  243.1114144470173 499.9050767573145 0  155.2373389820306 474.8197567317462 0  25.36256300907667 153.9152755065208 0  432.3709625126712 412.6214396304305 0  6.013151705810699 246.637913163471 0  246.6379131630491 493.986848294322 0  338.6995838441862 22.68244767887072 0  477.3175523131281 338.6995838660569 0  493.9868482700757 246.6379131399102 0  246.6201155078769 6.218451882810491 0  417.6179310263282 72.7156044707053 0  102.2232990934413 445.0100869616822 0  63.66330858966404 92.20354579482142 0  391.3105220491464 50.73522820883105 0  72.79295043967942 418.0702734974704 0  448.290574428537 108.25674339002 0  402.4604651193511 440.7462829841712 0  97.55317348421397 59.11376320116034 0  136.7376477664901 33.58246472647134 0  363.3288394375288 465.6947312928271 0  44.0678766556007 381.0860953771871 0  469.6905266180034 142.3890690100806 0  22.68244791668644 338.6995843487432 0  338.699584349159 477.317552078365 0  173.389488083762 18.6681884918202 0  483.4809734778481 179.7121987795732 0  13.50237455842738 306.4709525540879 0  305.9825168523021 487.24416992
[...]
<PointData  Vectors="f_12"> 
<DataArray  type="Float64"  Name="f_12"  NumberOfComponents="3" format="ascii">0.0000000000000000e+00 1.4079904596753817e-01 9.8738209374699022e-03  0.0000000000000000e+00 6.6994212952546123e-02 1.8467335193830939e-02  0.0000000000000000e+00 6.1791099989122023e-01 1.0562885934431582e-02  0.0000000000000000e+00 1.8829488361968794e-02 1.1614225173481584e-01  0.0000000000000000e+00 6.1997655204322455e-01 1.0601704636511416e-02  0.0000000000000000e+00 6.2118679620943329e-01 1.0624716864993044e-02  0.0000000000000000e+00 6.2189102176135791e-01 1.0637951253927859e-02  0.0000000000000000e+00 6.2185266797710925e-01 1.0637502635465125e-02  0.0000000000000000e+00 6.2119302786809627e-01 1.0625027542050953e-02  0.0000000000000000e+00 6.1989517248307147e-01 1.0600202809260745e-02  0.0000000000000000e+00 6.1796952257600701e-01 1.0563581776901988e-02  0.0000000000000000e+00 6.1546013390399079e-01 1.0516357037919867e-02  0.0000000000000000e+00 6.1234992573225722e-01 1.0458435955109575e-02  0.0000000000000000e+00 6.0860820644030078e-01 1.0389629974279963e-02  0.0000000000000000e+00 6.0406772181359103e-01 1.0307551886462093e-02  0.0000000000000000e+00 5.9937022373448023e-01 1.0223475996383569e-02  0.0000000000000000e+00 5.9360155014563143e-01 1.0123146130215041e-02  0.0000000000000000e+00 5.8769588682425966e-01 1.0023237602795852e-02  0.0000000000000000e+00 5.8128574665586386e-01 9.9177128064355628e-03  0.0000000000000000e+00 5.7451620864314024e-01 9.8088258844092249e-03  0.0000000000000000e+00 5.6750439854182000e-01 9.7001235746429215e-03  0.0000000000000000e+00 5.6005989986547644e-01 9.5905753791924540e-03  0.0000000000000000e+00 5.5230600612605152e-01 9.4808692387737953e-03  0.0000000000000000e+00 5.4435567749438307e-01 9.3722543659768964e-03  0.0000000000000000e+00 5.3592055571079389e-01 9.2613975273317661e-03  0.0000000000000000e+00 5.2680968241361636e-01 9.1461398233632051e-03  0.0000000000000000e+00 5.1695929956873776e-01 9.0250008509222424e-03  0.0000000000000000e+00 5.0678035725618520e-01 8.9039995898217983e-03  0.0000000000000000e+00 4.9617821858202710e-01 8.7833092430428094e-03  0.0000000000000000e+00 4.8509779268630554e-01 8.6627186935837076e-03  0.0000000000000000e+00 4.7411477669301227e-01 8.5507647460680933e-03  0.0000000000000000e+00 4.6306508922104728e-01 8.4464377492846632e-03  0.0000000000000000e+00 4.5194602492102959e-01 8.3494780929200749e-03  0.0000000000000000e+00 4.4066545453784217e-01 8.2572187075097819e-03  0.0000000000000000e+00 4.2879039468406482e-01 8.1665094611185658e-03  0.0000000000000000e+00 4.1651080640474197e-01 8.0784100609330341e-03  0.0000000000000000e+00 4.0400016938645911e-01 7.9929404730850855e-03  0.0000000000000000e+00 3.9127138829785629e-01 7.9139507660447358e-03  0.0000000000000000e+00 3.7861177760521164e-01 7.8462956211714421e-03  0.0000000000000000e+00 3.6631042577896678e-01 7.7912008485233643e-03  0.0000000000000000e+00 3.5419732146860511e-01 7.7471283306284559e-03  0.0000000000000000e+00 3.4180940395336040e-01 7.7107017221825719e-03  0.0000000000000000e+00 3.2908405748626673e-01 7.6796570480106609e-03  0.0000000000000000e+00 3.1638496523832849e-01 7.6587619193106277e-03  0.0000000000000000e+00 3.0384322400735747e-01 7.6498513613144888e-03  0.0000000000000000e+00 2.9166425435030768e-01 7.6546469154780963e-03  0.0000000000000000e+00 2.7986756192932932e-01 7.6745860958908037e-03  0.0000000000000000e+00 2.6829729045582706e-01 7.7104027849115410e-03  0.0000000000000000e+00 2.5656930583054804e-01 7.7580928354986315e-03  0.0000000000000000e+00 2.4496667330471272e-01 7.8186220520072760e-03  0.0000000000000000e+00 2.3371080865347485e-01 7.8967868619923189e-03  0.0000000000000000e+00 2.2294200514147469e-01 7.9919195192453274e-03  0.0000000000000000e+00 2.1263628390229972e-01 8.1082853114123644e-03  0.0000000000000000e+00 2.0253736534338659e-01 8.2447887910531304e-03  0.0000000000000000e+00 1.9260739102051427e-01 8.4009780531512559e-03  0.0000000000000000e+00 1.8296519178167506e-01 8.5798933797163711e-03  0.0000000000000000e+00 1.7368042998401775e-01 8.7818526570099739e-03  0.0000000000000000e+00 1.6489248711701782e-01 9.0104578913327068e-03  0.0000000000000000e+00 1.5652217547271180e-01 9.2572812550026137e-03  0.0000000000000000e+00 1.4863555980304108e-01 9.5365791025493127e-03  0.0000000000000000e+00 1.3322267769593032e-01 1.0207842639480460e-02  0.0000000000000000e+00 1.2612837308554736e-01 1.0589876336334101e-02  0.0000000000000000e+00 1.1957382841004982e-01 1.1008719029013335e-02  0.0000000000000000e+00 1.1324487368402839e-01 1.1462385515849535e-02  0.0000000000000000e+00 1.0719220122908409e-01 1.1969975153019934e-02  0.0000000000000000e+00 1.0133806976412683e-01 1.2517975524990961e-02  0.0000000000000000e+00 9.5868368828339504e-02 1.3118540352090091e-02  0.0000000000000000e+00 9.0784006347269547e-02 1.3762711128742217e-02  0.0000000000000000e+00 8.6013721014283701e-02 1.4459944699046230e-02  0.0000000000000000e+00 8.1463508744863217e-02 1.5221645199629871e-02  0.0000000000000000e+00 7.7077946795469213e-02 1.6052440728147585e-02  0.0000000000000000e+00 7.2967140096224639e-02 1.6950798829509246e-02  0.0000000000000000e+00 6.9140038080978183e-02 1.7911077086378770e-02  0.0000000000000000e+00 6.5611618033249317e-02 1.8933482225736736e-02  0.0000000000000000e+00 6.2291119631248663e-02 2.0032125514719949e-02  0.0000000000000000e+00 5.9121954128547524e-02 2.1226735564432875e-02  0.0000000000000000e+00 5.6096350928024501e-02 2.2519922840130963e-02  0.0000000000000000e+00 5.3270853820367607e-02 2.3902420904951434e-02  0.0000000000000000e+00 5.0676174164893097e-02 2.5359694224324512e-02  0.0000000000000000e+00 4.8287492401682536e-02 2.6893467969664863e-02  0.0000000000000000e+00 4.6035175944044472e-02 2.8530425294690073e-02  0.0000000000000000e+00 4.3904471441628172e-02 3.0287942780532342e-02  0.0000000000000000e+00 4.1865521529282364e-02 3.2184058412311659e-02  0.0000000000000000e+00 3.9968490479970614e-02 3.4183505242989139e-02  0.0000000000000000e+00 3.8229119534315868e-02 3.6266810384696528e-02  0.0000000000000000e+00 3.6645530778786559e-02 3.8417975240084383e-02  0.0000000000000000e+00 3.5182642899306130e-02 4.0654723796246087e-02  0.0000000000000000e+00 3.3802026462037130e-02 4.3020166808303111e-02  0.0000000000000000e+00 3.2481017286790127e-02 4.5533724002246166e-02  0.0000000000000000e+00 3.1229075205525793e-02 4.8201859317594971e-02  0.0000000000000000e+00 3.0067001854725786e-02 5.0971796905053025e-02  0.0000000000000000e+00 2.9011022898584336e-02 5.3792979124759777e-02  0.0000000000000000e+00 2.8055155315216244e-02 5.6649723989497067e-02  0.0000000000000000e+00 2.7189921935407931e-02 5.9512913870438215e-02  0.0000000000000000e+00 2.6396658449816045e-02 6.2404752425261077e-02  0.0000000000000000e+00 2.5633937144203995e-02 6.5440787882758450e-02  0.0000000000000000e+00 2.4909253342017084e-02 6.8600455356915307e-02  0.0000000000000000e+00 2.4240136772935097e-02 7.1799624245438301e-02  0.0000000000000000e+00 2.3606659853525926e-02 7.5102254462471901e-02  0.0000000000000000e+00 2.3022353570037304e-02 7.8437082650773052e-02  0.0000000000000000e+00 2.2513688140956618e-02 8.1606990375007571e-02  0.0000000000000000e+00 2.2059952507191106e-02 8.4710897946024669e-02  0.0000000000000000e+00 2.1653176904752262e-02 8.7682281843132925e-02  0.0000000000000000e+00 2.1285778943560704e-02 9.0566006501257637e-02  0.0000000000000000e+00 2.0951950762607661e-02 9.3351223805965999e-02  0.0000000000000000e+00 2.0645653025556095e-02 9.6064648958220256e-02  0.0000000000000000e+00 2.0365360739820301e-02 9.8684924280635161e-02  0.0000000000000000e+00 2.0110713211206496e-02 1.0119435352336804e-01  0.0000000000000000e+00 1.9875693546809896e-02 1.0362299964054426e-01  0.0000000000000000e+00 1.9660068446374183e-02 1.0594248186999101e-01  0.0000000000000000e+00 1.9470532434091085e-02 1.0807644067454973e-01  0.0000000000000000e+00 1.9307429924435973e-02 1.0999994172333802e-01  0.0000000000000000e+00 1.9171386439416637e-02 1.1168264032831837e-01  0.0000000000000000e+00 1.9052314442625690e-02 1.1319607174510815e-01  0.0000000000000000e+00 1.8957874173713658e-02 1.1443166064711449e-01  0.0000000000000000e+00 1.8882607081237630e-02 1.1543401810382392e-01  0.0000000000000000e+00 1.8807456892189243e-02 1.1647160815016304e-01  0.0000000000000000e+00 1.8753268955151319e-02 1.1714524631228693e-01  0.0000000000000000e+00 1.8779318852909167e-02 1.1683750269893602e-01  0.0000000000000000e+00 1.8799279775399250e-02 1.1655672369474399e-01  0.0000000000000000e+00 1.8834638815910507e-02 1.1606841402261941e-01  0.0000000000000000e+00 1.8893104739549419e-02 1.1529482599535379e-01  0.0000000000000000e+00 1.8972736960356406e-02 1.1424456135242832e-01  0.0000000000000000e+00 1.9066517348729082e-02 1.1303338063956046e-01  0.0000000000000000e+00 1.9180758300832369e-02 1.1159229018932788e-01  0.0000000000000000e+00 1.9289916344150317e-02 1.1022741102599658e-01  0.0000000000000000e+00 1.9454981411099678e-02 1.0828578171118357e-01  0.0000000000000000e+00 1.9627551956727819e-02 1.0632141045821876e-01  0.0000000000000000e+00 1.9818167281808234e-02 1.0425384890564805e-01  0.0000000000000000e+00 2.0013982826926117e-02 1.0216937776379791e-01  0.0000000000000000e+00 2.0231817249094293e-02 9.9963496208231362e-02  0.0000000000000000e+00 2.0477202696997002e-02 9.7613649615253595e-02  0.0000000000000000e+00 2.0731790792902636e-02 9.5278956073251292e-02  0.0000000000000000e+00 2.1001440672778177e-02 9.2913039251477689e-02  0.0000000000000000e+00 2.1288839057426127e-02 9.0513353570927338e-02  0.0000000000000000e+00 2.1599540696139893e-02 8.8060283456314323e-02  0.0000000000000000e+00 2.1941779224216456e-02 8.5524916708400275e-02  0.0000000000000000e+00 2.2316762472429242e-02 8.2913932678166713e-02  0.0000000000000000e+00 2.2720921484560608e-02 8.0270809675554236e-02  0.0000000000000000e+00 2.3161013940467198e-02 7.7590103573210681e-02  0.0000000000000000e+00 2.3639995998235290e-02 7.4878695159738856e-02  0.0000000000000000e+00 2.4154620714962202e-02 7.2177295587223203e-02  0.0000000000000000e+00 2.4700533540547891e-02 6.9517653758749021e-02  0.0000000000000000e+00 2.5270432636281034e-02 6.6939989597508465e-02  0.0000000000000000e+00 2.5860530515366128e-02 6.4457133992170831e-02  0.0000000000000000e+00 2.6469078047209414e-02 6.2073518031885301e-02  0.0000000000000000e+00 2.7100124648767567e-02 5.9772998115425309e-02  0.0000000000000000e+00 2.7759451804316132e-02 5.7537831426837077e-02  0.0000000000000000e+00 2.8462875867703845e-02 5.5328684745484441e-02  0.0000000000000000e+00 2.9225261621790725e-02 5.3130923345700701e-02  0.0000000000000000e+00 3.0059591696072294e-02 5.0922096761882939e-02  0.0000000000000000e+00 3.0958409112079987e-02 4.8747730956687073e-02  0.0000000000000000e+00 3.1913022258060836e-02 4.6636479923215540e-02  0.0000000000000000e+00 3.2906816850101682e-02 4.4620213905823804e-02  0.0000000000000000e+00 3.3929005280168671e-02 4.2714133435835473e-02  0.0000000000000000e+00 3.4975368382021248e-02 4.0920819278710142e-02  0.0000000000000000e+00 3.6080793705531765e-02 3.9181520598527586e-02  0.0000000000000000e+00 3.7242987867161348e-02 3.7504398967833072e-02  0.0000000000000000e+00 3.8473825971667271e-02 3.5886690501973469e-02  0.0000000000000000e+00 3.9823372805507316e-02 3.4271341622854556e-02  0.0000000000000000e+00 4.1298372219144681e-02 3.2682772625755932e-02  0.0000000000000000e+00 4.2870487974830548e-02 3.1150964956317213e-02  0.0000000000000000e+00 4.4472930156328479e-02 2.9728856469317513e-02  0.0000000000000000e+00 4.6181825646709668e-02 2.8355083389125308e-02  0.0000000000000000e+00 4.7925914496723100e-02 2.7080269610810476e-02  0.0000000000000000e+00 4.9767997981809031e-02 2.5848742902771119e-02  0.0000000000000000e+00 5.1745646081204487e-02 2.4673170955263720e-02  0.0000000000000000e+00 5.3916794420959938e-02 2.3505711218454600e-02  0.0000000000000000e+00 5.6286836490705143e-02 2.2375152367426699e-02  0.0000000000000000e+00 5.8798399765226488e-02 2.1301923517627823e-02  0.0000000000000000e+00 6.1408654515076808e-02 2.0297723260312858e-02  0.0000000000000000e+00 6.4120701300861602e-02 1.9357056032863088e-02  0.0000000000000000e+00 7.0100154008120835e-02 1.7611439406133255e-02  0.0000000000000000e+00 7.3485192704135130e-02 1.6785668770560782e-02  0.0000000000000000e+00 7.7151571221233201e-02 1.6000364624453832e-02  0.0000000000000000e+00 8.1032526112591347e-02 1.5259667487269177e-02  0.0000000000000000e+00 8.5088448849245879e-02 1.4571776654294190e-02  0.0000000000000000e+00 8.9351393445373600e-02 1.3928990730696148e-02  0.0000000000000000e+00 9.3922881589418555e-02 1.3323370471270315e-02  0.0000000000000000e+00 9.8903017491461326e-02 1.2747611100192425e-02  0.0000000000000000e+00 1.0430504809862441e-01 1.2204653565102298e-02  0.0000000000000000e+00 1.1004567534690123e-01 1.1698682731364809e-02  0.0000000000000000e+00 1.1605022376777339e-01 1.1234595950129714e-02  0.0000000000000000e+00 1.2235032527569936e-01 1.0804341523991510e-02  0.0000000000000000e+00 1.2909222217173316e-01 1.0407988704979257e-02  0.0000000000000000e+00 1.3641210896561703e-01 1.0039982613222070e-02  0.0000000000000000e+00 1.4421957482540482e-01 9.7011996823982444e-03  0.0000000000000000e+00 1.5243953114186118e-01 9.3934713256473394e-03  0.0000000000000000e+00 1.6102686479986023e-01 9.1148008006118608e-03  0.0000000000000000e+00 1.7004574756118387e-01 8.8618317241290212e-03  0.0000000000000000e+00 1.7975659185152057e-01 8.6403962682581655e-03  0.0000000000000000e+00 1.9006155993636717e-01 8.4399111246204542e-03  0.0000000000000000e+00 2.0086321524636946e-01 8.2659104368935435e-03  0.0000000000000000e+00 2.1199984520315659e-01 8.1141249562478330e-03  0.0000000000000000e+00 2.2360246738534434e-01 7.9844484925081886e-03  0.0000000000000000e+00 2.3590028973613059e-01 7.8798606204327788e-03  0.0000000000000000e+00 2.4884856538531955e-01 7.7974270199170697e-03  0.0000000000000000e+00 2.6222168246391370e-01 7.7347014942137160e-03  0.0000000000000000e+00 2.7586327684982498e-01 7.6884980425968221e-03  0.0000000000000000e+00 2.8974166451793421e-01 7.6604862673512759e-03  0.0000000000000000e+00 3.0422396749309105e-01 7.6550334510124031e-03  0.0000000000000000e+00 3.1919980261855080e-01 7.6678349924171208e-03  0.0000000000000000e+00 3.3443992527359873e-01 7.6970346396353102e-03  0.0000000000000000e+00 3.4966900334640877e-01 7.7385302479850877e-03  0.0000000000000000e+00 3.6483145012836288e-01 7.7916911466424455e-03  0.0000000000000000e+00 3.8018003490984770e-01 7.8614285892574191e-03  0.0000000000000000e+00 3.9586805301403744e-01 7.9494026312679072e-03  0.0000000000000000e+00 4.1150630544214134e-01 8.0498678989898518e-03  0.0000000000000000e+00 4.2683138386007646e-01 8.1588063696341404e-03  0.0000000000000000e+00 4.4181340315110978e-01 8.2728803140158826e-03  0.0000000000000000e+00 4.5623683123791647e-01 8.3923028127952139e-03  0.0000000000000000e+00 4.7035385539940461e-01 8.5223945337412430e-03  0.0000000000000000e+00 4.8439038655725530e-01 8.6638527132772963e-03  0.0000000000000000e+00 4.9814101306159331e-01 8.8129543474342372e-03  0.0000000000000000e+00 5.1145171358991126e-01 8.9673355138326326e-03  0.0000000000000000e+00 5.2379888280899933e-01 9.1150454798871391e-03  0.0000000000000000e+00 5.3535091662712986e-01 9.2606462323960720e-03  0.0000000000000000e+00 5.4596480744736686e-01 9.4005823630331879e-03  0.0000000000000000e+00 5.5578216896320531e-01 9.5344515020945753e-03  0.0000000000000000e+00 5.6500197791818407e-01 9.6658675618025401e-03  0.0000000000000000e+00 5.7359858148136844e-01 9.7974910826869443e-03  0.0000000000000000e+00 5.8166057336520594e-01 9.9268222227914867e-03  0.0000000000000000e+00 5.8925306671604272e-01 1.0052401062772878e-02  0.0000000000000000e+00 5.9604849388632808e-01 1.0168584088063216e-02  0.0000000000000000e+00 6.0200514683285045e-01 1.0273786920785758e-02  0.0000000000000000e+00 6.0717344785065830e-01 1.0366155521889008e-02  0.0000000000000000e+00 6.1152452963234349e-01 1.0444902032726964e-02  0.0000000000000000e+00 6.1501173206247128e-01 1.0509041023587296e-02  0.0000000000000000e+00 5.0354821840999597e-01 8.8761634102785397e-03  0.0000000000000000e+00 3.7807944335651975e-02 3.6760842497171646e-02  0.0000000000000000e+00 4.3258907701146460e-01 8.1963489640437485e-03  0.0000000000000000e+00 6.5763788883804963e-02 1.8844584711270918e-02  0.0000000000000000e+00 6.1463228028807526e-01 1.0503699437690769e-02  0.0000000000000000e+00 2.1584190611638750e-02 8.8289856264900116e-02  0.0000000000000000e+00 2.7311904881482929e-01 7.6957034809629447e-03  0.0000000000000000e+00 1.3669199621597927e-01 1.0044863929924274e-02  0.0000000000000000e+00 1.8937422001223423e-02 1.1488856091888432e-01  0.0000000000000000e+00 3.1946439853725472e-02 4.6655745104794574e-02  0.0000000000000000e+00 3.7115175928806626e-01 7.8196562286812262e-03  0.0000000000000000e+00 2.7567589441596409e-02 5.8210712503710425e-02  0.0000000000000000e+00 2.6805709069546334e-02 6.0911165880281157e-02  0.0000000000000000e+00 2.8270778888336351e-01 7.6734041099177017e-03  0.0000000000000000e+00 4.2926348182832072e-02 3.1176835322978647e-02  0.0000000000000000e+00 5.0028286363544450e-01 8.8311579541168680e-03  0.0000000000000000e+00 2.3504600724442788e-02 7.5689485051019231e-02  0.0000000000000000e+00 2.0975461268301358e-02 9.3224725162762992e-02  0.0000000000000000e+00 5.6164383711225230e-01 9.6154906934222458e-03  0.0000000000000000e+00 1.9599952422502795e-01 8.3423397059473742e-03  0.0000000000000000e+00 5.7541687292415211e-02 2.1884957605589693e-02  0.0000000000000000e+00 1.3275803025399316e-01 1.0218286662065998e-02  0.0000000000000000e+00 5.8897036016214122e-01 1.0046333907509778e-02  0.0000000000000000e+00 1.9685839811501151e-02 1.0581109816831075e-01  0.0000000000000000e+00 7.8729988762431993e-02 1.5729208730612440e-02  0.0000000000000000e+00 1.0183378781823650e-01 1.2448937087717419e-02  0.0000000000000000e+00 6.1219721839450092e-01 1.0457684271291907e-02  0.0000000000000000e+00 5.6780773979233545e-01 9.7105876922402162e-03  0.0000000000000000e+00 4.7237787342600111e-02 2.7582440045923518e-02  0.0000000000000000e+00 1.9888013550068102e-02 1.0361739068424673e-01  0.0000000000000000e+00 2.0693962492310428e-01 8.1839425984125691e-03  0.0000000000000000e+00 3.6127581928340685e-01 7.7733210795271927e-03  0.0000000000000000e+00 1.9044759188569418e-02 1.1345650503437506e-01  0.0000000000000000e+00 9.8061709870964381e-02 1.2868639129129247e-02  0.0000000000000000e+00 8.3261090172583332e-02 1.4876831240667854e-02  0.0000000000000000e+00 6.1972749605776956e-01 1.0598987562275050e-02  0.0000000000000000e+00 2.4048359627912422e-02 7.2825259794931138e-02  0.0000000000000000e+00 3.2559462102273187e-02 4.5331394870487401e-02  0.0000000000000000e+00 5.9740101352553077e-01 1.0194290383109721e-02  0.0000000000000000e+00 4.4746712335913813e-01 8.3201376385580190e-03  0.0000000000000000e+00 5.5593579049741097e-02 2.2703845048524688e-02  0.0000000000000000e+00 1.9243520042525775e-02 1.1096606227330226e-01  0.0000000000000000e+00 1.6977065932096669e-01 8.8809056196489378e-03  0.0000000000000000e+00 5.2893813006544710e-01 9.1748460998059122e-03  0.0000000000000000e+00 2.3843798297031388e-01 7.8628925695368862e-03  0.0000000000000000e+00 1.8891369005310056e-02 1.1547162619719084e-01  0.0000000000000000e+00 2.0617687889937529e-02 9.6411188678557233e-02  0.0000000000000000e+00 1.1607886436232104e-01 1.1252495135349197e-02  0.0000000000000000e+00 3.5942237526322314e-02 3.9475546334630254e-02  0.0000000000000000e+00 5.3936462263594376e-01 9.3145011751042794e-03  0.0000000000000000e+00 3.9570292117483474e-01 7.9423424707543780e-03  0.0000000000000000e+00 2.4264291173119870e-01 7.8350407999644486e-03  0.0000000000000000e+00 2.2256607644185078e-02 8.3400073577501219e-02  0.0000000000000000e+00 1.6604375980976094e-01 8.9703805425277814e-03  0.0000000000000000e+00 4.2271381831340937e-02 3.1734516858290658e-02  0.0000000000000000e+00 3.2157999951158633e-01 7.6672316659554453e-03  0.0000000000