<?xml version="1.0"?>
<VTKFile type="UnstructuredGrid"  version="0.1"  >
<UnstructuredGrid>
<Piece  NumberOfPoints="4940" NumberOfCells="9650">
<Points>
<DataArray  type="Float64"  NumberOfComponents="3"  format="ascii">500 250 0  0 250 0  250 500 0  250 0 0  256.8885856082646 499.9050767557906 0  263.7719401218049 499.6203791065173 0  270.6448364229772 499.1461232471188 0  277.5020553257866 498.4826693209355 0  284.3383895508592 497.6305211460281 0  291.1486476865662 496.5903258312597 0  297.9276581259182 495.3628732847843 0  304.6702729675493 493.9490956196674 0  311.3713719748657 492.3500664368026 0  318.0258664141369 490.5670000199653 0  324.6287029687753 488.6012504015818 0  331.1748675330201 486.4543103455647 0  337.6593890460416 484.1278102064655 0  344.0773432429536 481.6235166997244 0  350.4238564271474 478.9433315480048 0  356.694109139292 476.0892900492477 0  362.88333985546 473.0635595140469 0  368.9868485575419 469.8684376402048 0  375.0000003153078 466.5063507640667 0  380.9182288257928 462.9798520074548 0  386.7370398729688 459.2916193419558 0  392.4520147244077 455.444453565817 0  398.0588135356345 451.4412761437442 0  403.5531785622926 447.285127045646 0  408.9309374414144 442.9791624087773 0  414.1880064015299 438.5266521049243 0  419.3203932989752 433.9309773069245 0  424.324200661095 429.1956279150535 0  429.1956286596235 424.3241998957182 0  433.9309780058756 419.3203925397119 0  438.5266527445345 414.1880056671062 0  442.9791630130591 408.9309367076756 0  447.2851276060475 403.5531778422888 0  451.4412766621026 398.0588128303826 0  455.4444540361634 392.4520140460735 0  459.2916197786263 386.7370392045948 0  462.9798524073514 380.9182281752347 0  466.5063511234856 374.9999996927758 0  469.8684379657123 368.9868479560565 0  473.0635598144817 362.8833392617846 0  476.0892903190255 356.6941085676214 0  478.9433317963513 350.4238558609745 0  481.6235169154735 344.0773427117675 0  484.12781039012 337.6593885555221 0  486.4543105028062 331.1748670749914 0  488.601250531677 324.6287025528375 0  490.5670001317469 318.0258660188321 0  492.3500665291326 311.3713716102628 0  493.949095695951 304.6702726271575 0  495.3628733416623 297.9276578347343 0  496.5903258712341 291.1486474470129 0  497.6305211749058 284.3383893426084 0  498.4826693388848 277.502055163614 0  499.1461232580606 270.6448362909296 0  499.6203791109319 263.7719400417897 0  499.9050767571306 256.8885855596534 0  499.9050767559877 243.1114143988867 0  499.6203791069493 236.2280598860241 0  499.1461232485393 229.3551635941651 0  498.4826693235677 222.4979446979962 0  497.6305211491849 215.6616104719064 0  496.5903258357701 208.8513523404629 0  495.3628732906988 202.0723419043604 0  493.9490956264813 195.3297270628552 0  492.3500664487791 188.6286280724281 0  490.5670000344809 181.9741336371959 0  488.6012504175981 175.3712970824318 0  486.4543103623226 168.8251325157939 0  484.1278102222298 162.3406109960628 0  481.6235167152198 155.9226567951971 0  478.9433315621651 149.5761436051346 0  476.0892900516498 143.3058908657982 0  473.063559513628 137.1166601437124 0  469.8684376406648 131.0131514433083 0  466.5063507675389 124.9999996907064 0  462.9798520124137 119.0817711822745 0  459.2916193464549 113.2629601339176 0  455.4444535642773 107.5479852733717 0  451.4412761528674 101.9411864767781 0  447.2851270583545 96.44682145403524 0  442.9791624165781 91.06906256805769 0  438.5266521117469 85.81199360630404 0  433.9309773156125 80.67960671046254 0  429.1956279150353 75.67579933888632 0  424.3241998888952 70.80437133373906 0  419.3203925223282 66.06902197812161 0  414.1880056411937 61.47334723289828 0  408.9309366751728 57.0208369601728 0  403.5531778009394 52.71487236176898 0  398.058812796452 48.55872331295853 0  392.4520140187753 44.55554594490843 0  386.7370391799677 40.70838020528396 0  380.9182281475119 37.02014757560744 0  374.9999996718656 33.49364886444181 0  368.9868479340393 30.13156202237255 0  362.8833392380029 26.93644017348339 0  356.6941085456942 23.91070967062674 0  350.4238558420009 21.0566681953261 0  344.0773426899492 18.37648307566465 0  337.6593885328982 15.87218960140942 0  331.1748670549786 13.54568949032341 0  324.6287025315056 11.39874946165088 0  318.0258660010876 9.432999863235466 0  311.3713716017894 7.649933468721599 0  304.6702726190621 6.050904302234756 0  297.9276578269805 4.637126656823085 0  291.148647441857 3.409674127905504 0  284.3383893425031 2.369478825079682 0  277.502055159398 1.517330660648639 0  270.6448362875833 0.853876741662134 0  263.7719400401456 0.3796208889774277 0  256.8885855592052 0.09492324285704967 0  243.1114143979462 0.09492324403817065 0  236.2280598850882 0.3796208931023841 0  229.3551635938215 0.8538767514891958 0  222.4979446968584 1.517330676558146 0  215.6616104703111 2.369478851036291 0  208.8513523382973 3.409674164591252 0  202.0723419066374 4.637126708856528 0  195.3297270659513 6.050904372824903 0  188.628628074828 7.649933550613184 0  181.9741336377093 9.432999965373938 0  175.3712970793675 11.39874958336037 0  168.8251325057572 13.54568964112298 0  162.340610986655 15.87218978129263 0  155.9226567874317 18.37648328793418 0  149.576143602509 21.05666843898663 0  143.3058908718157 23.91070994551046 0  137.1166601505524 26.93644048291054 0  131.0131514451933 30.13156235831508 0  124.9999996848412 33.49364923584736 0  119.0817711715717 37.0201479941652 0  113.2629601211624 40.70838066187849 0  107.5479852622251 44.55554644345162 0  101.9411864693332 48.55872385260452 0  96.44682143286516 52.71487295812284 0  91.06906254351222 57.02083760363669 0  85.81199358272519 61.4733479087879 0  80.67960667988106 66.06902271253972 0  75.67579930062769 70.80437212218331 0  70.80437129287643 75.67580015310926 0  66.06902193673014 80.67960752263491 0  61.47334718684866 85.81199441168215 0  57.02083692524275 91.0690633672404 0  52.71487232786438 96.44682224262129 0  48.55872328070024 101.941187247437 0  44.55554591578033 107.5479860232332 0  40.7083801742321 113.2629608675606 0  37.02014754791168 119.0817718975441 0  33.49364883372994 125.000000381329 0  30.13156199866361 131.0131521097709 0  26.9364401549829 137.1166607985551 0  23.91070965524918 143.3058914868915 0  21.05666818346614 149.576144185037 0  18.37648306853811 155.9226573275967 0  15.8721895918909 162.3406114925245 0  13.54568948170046 168.8251329701392 0  11.39874945301878 175.3712974960928 0  9.432999857087736 181.9741340206533 0  7.649933466342702 188.6286284076045 0  6.050904301250966 195.3297273853278 0  4.637126656808988 202.0723421730917 0  3.409674127767772 208.8513525589684 0  2.369478824521138 215.6616106615248 0  1.517330660909465 222.4979448382452 0  0.8538767414496533 229.355163714981 0  0.3796208887135322 236.2280599646376 0  0.09492324266324204 243.1114144478261 0  0.0949232442452228 256.8885856095658 0  0.3796208935834784 263.7719401236316 0  0.8538767530323526 270.6448364248016 0  1.517330679476544 277.5020553295092 0  2.369478854618649 284.3383895555228 0  3.409674170191892 291.1486476952655 0  4.6371267162381 297.9276581311522 0  6.050904381420935 304.6702729724059 0  7.649933562385399 311.3713719716595 0  9.43299997979841 318.0258664133013 0  11.3987495994252 324.6287029719946 0  13.54568965885832 331.174867545904 0  15.87218979367188 337.6593890464085 0  18.37648329843151 344.0773432384132 0  21.05666844777872 350.423856417535 0  23.91070995156048 356.6941091410045 0  26.93644048988043 362.8833398632205 0  30.13156235982007 368.9868485575877 0  33.49364924138357 375.0000003247478 0  37.0201480006036 380.9182288389023 0  40.70838066758398 386.7370398875706 0  44.55554644477201 392.4520147396792 0  48.55872386086904 398.0588135419111 0  52.71487295981296 403.5531785693063 0  57.02083760525949 408.9309374584583 0  61.47334790862246 414.1880064170849 0  66.06902271205095 419.320393319588 0  70.80437211216579 424.3242006890749 0  75.67580013809859 429.195628692521 0  80.6796075127923 433.930978054209 0  85.81199439754931 438.5266528008431 0  91.06906334717917 442.9791630582355 0  96.44682221438322 447.2851276501571 0  101.9411872243843 451.441276702356 0  107.5479859945825 455.4444540643537 0  113.2629608446994 459.2916198108319 0  119.0817718768376 462.9798524393601 0  125.0000003647644 466.5063511567065 0  131.0131521012763 469.8684379967393 0  137.1166607840049 473.0635598376539 0  143.3058914748804 476.0892903390826 0  149.5761441732679 478.9433318113714 0  155.9226573130112 481.6235169255377 0  162.3406114779862 484.1278104026658 0  168.8251329570439 486.4543105138039 0  175.3712974805475 488.601250542119 0  181.9741340135204 490.5670001408953 0  188.6286284005059 492.3500665318597 0  195.3297273788229 493.9490956972913 0  202.0723421640089 495.3628733414168 0  208.8513525529672 496.5903258712308 0  215.6616106544547 497.6305211744985 0  222.4979448327038 498.4826693384772 0  229.3551637102845 499.1461232581612 0  236.2280599621369 499.6203791111485 0  243.1114144470173 499.9050767573145 0  155.2373389820306 474.8197567317462 0  25.36256300907667 153.9152755065208 0  432.3709625126712 412.6214396304305 0  6.013151705810699 246.637913163471 0  246.6379131630491 493.986848294322 0  338.6995838441862 22.68244767887072 0  477.3175523131281 338.6995838660569 0  493.9868482700757 246.6379131399102 0  246.6201155078769 6.218451882810491 0  417.6179310263282 72.7156044707053 0  102.2232990934413 445.0100869616822 0  63.66330858966404 92.20354579482142 0  391.3105220491464 50.73522820883105 0  72.79295043967942 418.0702734974704 0  448.290574428537 108.25674339002 0  402.4604651193511 440.7462829841712 0  97.55317348421397 59.11376320116034 0  136.7376477664901 33.58246472647134 0  363.3288394375288 465.6947312928271 0  44.0678766556007 381.0860953771871 0  469.6905266180034 142.3890690100806 0  22.68244791668644 338.6995843487432 0  338.699584349159 477.317552078365 0  173.389488083762 18.6681884918202 0  483.4809734778481 179.7121987795732 0  13.50237455842738 306.4709525540879 0  305.9825168523021 487.24416992
[...]
<PointData  Vectors="f_12"> 
<DataArray  type="Float64"  Name="f_12"  NumberOfComponents="3" format="ascii">0.0000000000000000e+00 2.4409471239969553e-02 7.1717132106925527e-02  0.0000000000000000e+00 1.5534045740965207e-02 2.1420599469478377e-01  0.0000000000000000e+00 1.4973077726654846e-01 9.4866829513167369e-03  0.0000000000000000e+00 1.5943849553859291e-01 1.0089424913666285e+00  0.0000000000000000e+00 1.5067673384227687e-01 9.4515756569504440e-03  0.0000000000000000e+00 1.5123479195426515e-01 9.4312466768938629e-03  0.0000000000000000e+00 1.5156013337368768e-01 9.4192334100100111e-03  0.0000000000000000e+00 1.5154279225434439e-01 9.4202020136734486e-03  0.0000000000000000e+00 1.5123794349402672e-01 9.4313359158478740e-03  0.0000000000000000e+00 1.5063895915904232e-01 9.4530525026453524e-03  0.0000000000000000e+00 1.4975509601767853e-01 9.4854561788963402e-03  0.0000000000000000e+00 1.4861224171068851e-01 9.5282206606184285e-03  0.0000000000000000e+00 1.4720860050663057e-01 9.5818354712059097e-03  0.0000000000000000e+00 1.4553916752354787e-01 9.6472624925823310e-03  0.0000000000000000e+00 1.4353951881719335e-01 9.7283188072218984e-03  0.0000000000000000e+00 1.4149943995575412e-01 9.8134115514730037e-03  0.0000000000000000e+00 1.3903707067378318e-01 9.9210397550134437e-03  0.0000000000000000e+00 1.3656436010040254e-01 1.0034722722057058e-02  0.0000000000000000e+00 1.3393041042583481e-01 1.0162069208289690e-02  0.0000000000000000e+00 1.3120331007660466e-01 1.0300322812596532e-02  0.0000000000000000e+00 1.2843907889980177e-01 1.0449101349657630e-02  0.0000000000000000e+00 1.2557332137150884e-01 1.0615245110966638e-02  0.0000000000000000e+00 1.2265403027399507e-01 1.0795570249089807e-02  0.0000000000000000e+00 1.1972949672683013e-01 1.0987796742411581e-02  0.0000000000000000e+00 1.1669752907218608e-01 1.1200530499994617e-02  0.0000000000000000e+00 1.1350219673296101e-01 1.1440931188566488e-02  0.0000000000000000e+00 1.1012977484457870e-01 1.1711411267453996e-02  0.0000000000000000e+00 1.0673415141879890e-01 1.2004269382343148e-02  0.0000000000000000e+00 1.0329151581160188e-01 1.2325766218572428e-02  0.0000000000000000e+00 9.9790097512572923e-02 1.2680271149613939e-02  0.0000000000000000e+00 9.6418064489007124e-02 1.3055404736426152e-02  0.0000000000000000e+00 9.3122027981674974e-02 1.3458702206559953e-02  0.0000000000000000e+00 8.9895644086144283e-02 1.3893361051986885e-02  0.0000000000000000e+00 8.6707342675254484e-02 1.4362945947881853e-02  0.0000000000000000e+00 8.3438625322883556e-02 1.4891172605620470e-02  0.0000000000000000e+00 8.0145259468527838e-02 1.5476286313460142e-02  0.0000000000000000e+00 7.6875002676412216e-02 1.6113252074494162e-02  0.0000000000000000e+00 7.3638834062691838e-02 1.6813774955374453e-02  0.0000000000000000e+00 7.0512240420116279e-02 1.7574633466529606e-02  0.0000000000000000e+00 6.7557554432929948e-02 1.8381822371067846e-02  0.0000000000000000e+00 6.4723595599226372e-02 1.9249859946658114e-02  0.0000000000000000e+00 6.1895094191714871e-02 2.0218094132234302e-02  0.0000000000000000e+00 5.9053574588553086e-02 2.1299460694377374e-02  0.0000000000000000e+00 5.6288177177144620e-02 2.2486598204123298e-02  0.0000000000000000e+00 5.3624262401904071e-02 2.3781286091711817e-02  0.0000000000000000e+00 5.1102204220718574e-02 2.5176199361669510e-02  0.0000000000000000e+00 4.8717792815909079e-02 2.6679135180779610e-02  0.0000000000000000e+00 4.6434517121152520e-02 2.8323274655984752e-02  0.0000000000000000e+00 4.4164307952468951e-02 3.0171861538230021e-02  0.0000000000000000e+00 4.1962050007361217e-02 3.2205252345090363e-02  0.0000000000000000e+00 3.9875278210898063e-02 3.4427275032033106e-02  0.0000000000000000e+00 3.7921003210311277e-02 3.6816446751793304e-02  0.0000000000000000e+00 3.6095416827888076e-02 3.9408323150902660e-02  0.0000000000000000e+00 3.4340082962349923e-02 4.2269215664526114e-02  0.0000000000000000e+00 3.2643587813211868e-02 4.5436620925730357e-02  0.0000000000000000e+00 3.1030061181380516e-02 4.8924031770701884e-02  0.0000000000000000e+00 2.9505532766695621e-02 5.2736761772428371e-02  0.0000000000000000e+00 2.8098406603598136e-02 5.6869563757187297e-02  0.0000000000000000e+00 2.6776749348016951e-02 6.1317480974450722e-02  0.0000000000000000e+00 2.5564989873700917e-02 6.6069462246208563e-02  0.0000000000000000e+00 2.3267839634710845e-02 7.7593625011520312e-02  0.0000000000000000e+00 2.2248997689978692e-02 8.4055845519753439e-02  0.0000000000000000e+00 2.1340511713091509e-02 9.0952712856243262e-02  0.0000000000000000e+00 2.0476630318548267e-02 9.8514064943706653e-02  0.0000000000000000e+00 1.9686894371345104e-02 1.0685793364263495e-01  0.0000000000000000e+00 1.8934453805093687e-02 1.1601123964391649e-01  0.0000000000000000e+00 1.8271207075733622e-02 1.2592470313167389e-01  0.0000000000000000e+00 1.7682717706750461e-02 1.3650816236882124e-01  0.0000000000000000e+00 1.7164867220909496e-02 1.4791558121440901e-01  0.0000000000000000e+00 1.6705240648972223e-02 1.6037705734879684e-01  0.0000000000000000e+00 1.6291821655929732e-02 1.7407743764473904e-01  0.0000000000000000e+00 1.5951827917413439e-02 1.8884958653187509e-01  0.0000000000000000e+00 1.5680099772476235e-02 2.0459544401614357e-01  0.0000000000000000e+00 1.5483692515582827e-02 2.2125757218635908e-01  0.0000000000000000e+00 1.5353916715154223e-02 2.3912641236327614e-01  0.0000000000000000e+00 1.5293486050656961e-02 2.5853377120446774e-01  0.0000000000000000e+00 1.5305855466821649e-02 2.7956560283567661e-01  0.0000000000000000e+00 1.5403668493178924e-02 3.0192994473132739e-01  0.0000000000000000e+00 1.5593354055576469e-02 3.2528378803833674e-01  0.0000000000000000e+00 1.5879755645312736e-02 3.4961453040870277e-01  0.0000000000000000e+00 1.6270763696010652e-02 3.7538782849797903e-01  0.0000000000000000e+00 1.6790067273410179e-02 4.0277849264570476e-01  0.0000000000000000e+00 1.7459306688734064e-02 4.3202010534094826e-01  0.0000000000000000e+00 1.8290171489262243e-02 4.6238264665723805e-01  0.0000000000000000e+00 1.9297542558174972e-02 4.9333786050849349e-01  0.0000000000000000e+00 2.0492865733867646e-02 5.2447349770172980e-01  0.0000000000000000e+00 2.1907892013997034e-02 5.5595109027729761e-01  0.0000000000000000e+00 2.3605824730374418e-02 5.8821671846243662e-01  0.0000000000000000e+00 2.5654490894935263e-02 6.2138063105468744e-01  0.0000000000000000e+00 2.8114767892777327e-02 6.5504155357288119e-01  0.0000000000000000e+00 3.0996795255211016e-02 6.8817569195069395e-01  0.0000000000000000e+00 3.4279303929900744e-02 7.1984631757336293e-01  0.0000000000000000e+00 3.7960207095096114e-02 7.4969534171116736e-01  0.0000000000000000e+00 4.1997272130466744e-02 7.7746143214541874e-01  0.0000000000000000e+00 4.6424882811618662e-02 8.0334133480098147e-01  0.0000000000000000e+00 5.1446550815260540e-02 8.2830475157944627e-01  0.0000000000000000e+00 5.7017383013810166e-02 8.5199778202484888e-01  0.0000000000000000e+00 6.2991936685777739e-02 8.7361969431066078e-01  0.0000000000000000e+00 6.9478893766923511e-02 8.9361570316693895e-01  0.0000000000000000e+00 7.6265242111101736e-02 9.1167189339935173e-01  0.0000000000000000e+00 8.2922504018594148e-02 9.2681606969221730e-01  0.0000000000000000e+00 8.9549595063842607e-02 9.3998222545283439e-01  0.0000000000000000e+00 9.6020373278463481e-02 9.5118831127110826e-01  0.0000000000000000e+00 1.0236408913227533e-01 9.6090971776543210e-01  0.0000000000000000e+00 1.0855423793675754e-01 9.6926459821696154e-01  0.0000000000000000e+00 1.1461953241672741e-01 9.7652734032314881e-01  0.0000000000000000e+00 1.2050112361035234e-01 9.8277612153767768e-01  0.0000000000000000e+00 1.2614221045388510e-01 9.8810844346977955e-01  0.0000000000000000e+00 1.3160509985318392e-01 9.9270598141730904e-01  0.0000000000000000e+00 1.3682436973209186e-01 9.9661191487338296e-01  0.0000000000000000e+00 1.4160852812529615e-01 9.9983275631205437e-01  0.0000000000000000e+00 1.4590128724053750e-01 1.0024055104128222e+00  0.0000000000000000e+00 1.4962570533135972e-01 1.0044465040794508e+00  0.0000000000000000e+00 1.5296733402005894e-01 1.0061219289126435e+00  0.0000000000000000e+00 1.5568546135007258e-01 1.0073689930493412e+00  0.0000000000000000e+00 1.5788524602046111e-01 1.0083214485089425e+00  0.0000000000000000e+00 1.6013948663889868e-01 1.0092111056675801e+00  0.0000000000000000e+00 1.6165882617555030e-01 1.0098215552806826e+00  0.0000000000000000e+00 1.6095228832609226e-01 1.0095261366543204e+00  0.0000000000000000e+00 1.6034138567699616e-01 1.0092902379627609e+00  0.0000000000000000e+00 1.5927740944789071e-01 1.0088701363433388e+00  0.0000000000000000e+00 1.5757421102187405e-01 1.0081824131098740e+00  0.0000000000000000e+00 1.5526124049083473e-01 1.0071769630666101e+00  0.0000000000000000e+00 1.5259038635918973e-01 1.0059362989919791e+00  0.0000000000000000e+00 1.4940297588537055e-01 1.0043209928396215e+00  0.0000000000000000e+00 1.4639362759591587e-01 1.0027154238636431e+00  0.0000000000000000e+00 1.4205267313606126e-01 1.0001126338376221e+00  0.0000000000000000e+00 1.3765615890715419e-01 9.9718327325474287e-01  0.0000000000000000e+00 1.3300449281337143e-01 9.9379802275039497e-01  0.0000000000000000e+00 1.2833828526450239e-01 9.9001388932233214e-01  0.0000000000000000e+00 1.2338729254100923e-01 9.8556221760633744e-01  0.0000000000000000e+00 1.1809682688899800e-01 9.8029724376214977e-01  0.0000000000000000e+00 1.1286188329272828e-01 9.7450136553674283e-01  0.0000000000000000e+00 1.0758594191035427e-01 9.6801162248336936e-01  0.0000000000000000e+00 1.0226815929061961e-01 9.6074392595829439e-01  0.0000000000000000e+00 9.6865598257504182e-02 9.5255900655570969e-01  0.0000000000000000e+00 9.1332582311114602e-02 9.4318308495517011e-01  0.0000000000000000e+00 8.5705293569946356e-02 9.3253511079380003e-01  0.0000000000000000e+00 8.0109132602582164e-02 9.2063118528650556e-01  0.0000000000000000e+00 7.4545630584050268e-02 9.0730122999185980e-01  0.0000000000000000e+00 6.9059512248859325e-02 8.9243094673276535e-01  0.0000000000000000e+00 6.3761714366057709e-02 8.7612931761874513e-01  0.0000000000000000e+00 5.8740139549047415e-02 8.5854808656033532e-01  0.0000000000000000e+00 5.4082628557962316e-02 8.3998987737229436e-01  0.0000000000000000e+00 4.9816728743968038e-02 8.2064565300574055e-01  0.0000000000000000e+00 4.5940908164811375e-02 8.0068139747721800e-01  0.0000000000000000e+00 4.2418192786748216e-02 7.8008262106247850e-01  0.0000000000000000e+00 3.9210186123722714e-02 7.5879525896454214e-01  0.0000000000000000e+00 3.6249292065005941e-02 7.3647907928145084e-01  0.0000000000000000e+00 3.3513054421393185e-02 7.1294531237249126e-01  0.0000000000000000e+00 3.0974854097056612e-02 6.8799713029350817e-01  0.0000000000000000e+00 2.8686568173206532e-02 6.6217750412861687e-01  0.0000000000000000e+00 2.6660017295533443e-02 6.3597479203110885e-01  0.0000000000000000e+00 2.4902144015723625e-02 6.1000694316006587e-01  0.0000000000000000e+00 2.3393226436448825e-02 5.8468105936870995e-01  0.0000000000000000e+00 2.2101781955365076e-02 5.6019774425423186e-01  0.0000000000000000e+00 2.0967805077682315e-02 5.3589142689192704e-01  0.0000000000000000e+00 1.9973726049076483e-02 5.1194898799301780e-01  0.0000000000000000e+00 1.9108915379692889e-02 4.8836413806588891e-01  0.0000000000000000e+00 1.8332749810170013e-02 4.6439177058627451e-01  0.0000000000000000e+00 1.7654354967099394e-02 4.4032547146227036e-01  0.0000000000000000e+00 1.7077883668814957e-02 4.1679807151827869e-01  0.0000000000000000e+00 1.6609189791164505e-02 3.9475609421402086e-01  0.0000000000000000e+00 1.6217996136664865e-02 3.7326028837618175e-01  0.0000000000000000e+00 1.5911385825997552e-02 3.5320545410439402e-01  0.0000000000000000e+00 1.5659814059995975e-02 3.3377701000871690e-01  0.0000000000000000e+00 1.5479861426389723e-02 3.1495299647646213e-01  0.0000000000000000e+00 1.5347711234325314e-02 2.9619881469373577e-01  0.0000000000000000e+00 1.5280609707148360e-02 2.7783845451996153e-01  0.0000000000000000e+00 1.5270020069408766e-02 2.6035466041886485e-01  0.0000000000000000e+00 1.5310818175322110e-02 2.4400804996775469e-01  0.0000000000000000e+00 1.5397304292057507e-02 2.2871540315859790e-01  0.0000000000000000e+00 1.5724924100106570e-02 2.0020820416387580e-01  0.0000000000000000e+00 1.5972368750447049e-02 1.8664206710951597e-01  0.0000000000000000e+00 1.6283624296383897e-02 1.7365726970237125e-01  0.0000000000000000e+00 1.6644344815012427e-02 1.6145783316645146e-01  0.0000000000000000e+00 1.7052081452633573e-02 1.5015714390260390e-01  0.0000000000000000e+00 1.7507339687267344e-02 1.3962780276941555e-01  0.0000000000000000e+00 1.8025460788654090e-02 1.2967039510580555e-01  0.0000000000000000e+00 1.8619982302298037e-02 1.2014763416805124e-01  0.0000000000000000e+00 1.9296176163843860e-02 1.1111151942727768e-01  0.0000000000000000e+00 2.0039770726775853e-02 1.0269181016925970e-01  0.0000000000000000e+00 2.0843357869316532e-02 9.4971598929650972e-02  0.0000000000000000e+00 2.1705675702766693e-02 8.7847561598551990e-02  0.0000000000000000e+00 2.2658488520056547e-02 8.1201803192841510e-02  0.0000000000000000e+00 2.3722865877681045e-02 7.4928061523237971e-02  0.0000000000000000e+00 2.4886158301658655e-02 6.9092132917615165e-02  0.0000000000000000e+00 2.6139764087334628e-02 6.3740579223247204e-02  0.0000000000000000e+00 2.7475221248112004e-02 5.8850407067880646e-02  0.0000000000000000e+00 2.8902758602123057e-02 5.4355739135762991e-02  0.0000000000000000e+00 3.0487739487409446e-02 5.0184118805567737e-02  0.0000000000000000e+00 3.2199533063173802e-02 4.6308565761451391e-02  0.0000000000000000e+00 3.4038847777651454e-02 4.2778743093377106e-02  0.0000000000000000e+00 3.5970450557221083e-02 3.9584466387133622e-02  0.0000000000000000e+00 3.8026532709781194e-02 3.6669936149200860e-02  0.0000000000000000e+00 4.0263939843661493e-02 3.3983863369651354e-02  0.0000000000000000e+00 4.2680107568708263e-02 3.1511698891486070e-02  0.0000000000000000e+00 4.5238481778920550e-02 2.9269053677791278e-02  0.0000000000000000e+00 4.7909836899241276e-02 2.7245194129701909e-02  0.0000000000000000e+00 5.0696156486934811e-02 2.5425291275294342e-02  0.0000000000000000e+00 5.3692495236744749e-02 2.3757916865124396e-02  0.0000000000000000e+00 5.6882783440843590e-02 2.2230366736739365e-02  0.0000000000000000e+00 6.0228488685381942e-02 2.0848245876030753e-02  0.0000000000000000e+00 6.3668819417109487e-02 1.9609250834686332e-02  0.0000000000000000e+00 6.7195667099951936e-02 1.8499149363098665e-02  0.0000000000000000e+00 7.0884058568254485e-02 1.7492396008162551e-02  0.0000000000000000e+00 7.4787799677311112e-02 1.6570131862473678e-02  0.0000000000000000e+00 7.8814863824114637e-02 1.5737706174744202e-02  0.0000000000000000e+00 8.2896772208148450e-02 1.4993916666532596e-02  0.0000000000000000e+00 8.7018669456913209e-02 1.4324734957988194e-02  0.0000000000000000e+00 9.1120505972329638e-02 1.3731856479759679e-02  0.0000000000000000e+00 9.5280649067691320e-02 1.3201145377324992e-02  0.0000000000000000e+00 9.9567557142329968e-02 1.2715613767033056e-02  0.0000000000000000e+00 1.0391943720448199e-01 1.2274555379715765e-02  0.0000000000000000e+00 1.0828378054788661e-01 1.1878575791846353e-02  0.0000000000000000e+00 1.1246192562385521e-01 1.1529217058856232e-02  0.0000000000000000e+00 1.1649922376372840e-01 1.1222647897395724e-02  0.0000000000000000e+00 1.2032130216185298e-01 1.0955025895103080e-02  0.0000000000000000e+00 1.2395776642161521e-01 1.0718260542471669e-02  0.0000000000000000e+00 1.2746876796072820e-01 1.0506690764774560e-02  0.0000000000000000e+00 1.3083972324842066e-01 1.0322541705488802e-02  0.0000000000000000e+00 1.3408621302103904e-01 1.0157092458335177e-02  0.0000000000000000e+00 1.3721728896514246e-01 1.0006943696343921e-02  0.0000000000000000e+00 1.4008421603468940e-01 9.8774954084511341e-03  0.0000000000000000e+00 1.4264883698449246e-01 9.7682393947406011e-03  0.0000000000000000e+00 1.4491220671655464e-01 9.6747118471968412e-03  0.0000000000000000e+00 1.4684427764728192e-01 9.5975550845198293e-03  0.0000000000000000e+00 1.4841328584957433e-01 9.5367050799889334e-03  0.0000000000000000e+00 1.0567388122722687e-01 1.2112670692942383e-02  0.0000000000000000e+00 1.9564344098818208e-02 5.0100665560514723e-01  0.0000000000000000e+00 8.4472615934182996e-02 1.4720297206404788e-02  0.0000000000000000e+00 1.5475251691208856e-02 2.2026738951851760e-01  0.0000000000000000e+00 1.4823856011780920e-01 9.5448136030314677e-03  0.0000000000000000e+00 9.7274051795346192e-02 9.5318803780061534e-01  0.0000000000000000e+00 4.7381573450985252e-02 2.7623482437628112e-02  0.0000000000000000e+00 2.3780575231686370e-02 7.4724224745160578e-02  0.0000000000000000e+00 1.5652840370206922e-01 1.0077324693210208e+00  0.0000000000000000e+00 2.6646240472910847e-02 6.3558737105884577e-01  0.0000000000000000e+00 6.8700808826041501e-02 1.8074287204540122e-02  0.0000000000000000e+00 4.0130673677658810e-02 7.6511592926363825e-01  0.0000000000000000e+00 4.4079217310069981e-02 7.9006113499822095e-01  0.0000000000000000e+00 4.9275795755296149e-02 2.6323203183019551e-02  0.0000000000000000e+00 1.7090632719441497e-02 4.1645084039085756e-01  0.0000000000000000e+00 1.0461067251645832e-01 1.2201369042084173e-02  0.0000000000000000e+00 7.0620849021776941e-02 8.9684414460714257e-01  0.0000000000000000e+00 1.0819382995679547e-01 9.6878368021238981e-01  0.0000000000000000e+00 1.2617301968404748e-01 1.0581273317700614e-02  0.0000000000000000e+00 3.3207830550741280e-02 4.4322409916460949e-02  0.0000000000000000e+00 1.5291458346274085e-02 2.6921270817821924e-01  0.0000000000000000e+00 2.3189940458912300e-02 7.7944345248812746e-02  0.0000000000000000e+00 1.3709149503426421e-01 1.0011669106302416e-02  0.0000000000000000e+00 1.3637648524116322e-01 9.9634065616668410e-01  0.0000000000000000e+00 1.6444660910007326e-02 1.6871510335745946e-01  0.0000000000000000e+00 1.8986622324167972e-02 1.1512163307454805e-01  0.0000000000000000e+00 1.4713837184205009e-01 9.5864237370523950e-03  0.0000000000000000e+00 1.2855690539420120e-01 1.0447939761646718e-02  0.0000000000000000e+00 1.6027918579705126e-02 3.6099563476752933e-01  0.0000000000000000e+00 1.3147341974103133e-01 9.9261397325108669e-01  0.0000000000000000e+00 3.5101481476360982e-02 4.0984384574491127e-02  0.0000000000000000e+00 6.6372110716137606e-02 1.8737382329756216e-02  0.0000000000000000e+00 1.5340087451170473e-01 1.0063209168017799e+00  0.0000000000000000e+00 1.8533943440329721e-02 1.2179580060787235e-01  0.0000000000000000e+00 1.6867756919495384e-02 1.5510833211375608e-01  0.0000000000000000e+00 1.5056084727356980e-01 9.4576390371842629e-03  0.0000000000000000e+00 6.4935272639380287e-02 8.7986312327939398e-01  0.0000000000000000e+00 2.5496305090636322e-02 6.1906516948394963e-01  0.0000000000000000e+00 1.4066045708684008e-01 9.8544507625803850e-03  0.0000000000000000e+00 8.8606471612808213e-02 1.4087838564737956e-02  0.0000000000000000e+00 1.5298666125965794e-02 2.8305823099326710e-01  0.0000000000000000e+00 1.4788497572396214e-01 1.0035286537324275e+00  0.0000000000000000e+00 2.8876694118642628e-02 5.4521910433292513e-02  0.0000000000000000e+00 1.1423860562507075e-01 1.1386302483275519e-02  0.0000000000000000e+00 4.0746139101992339e-02 3.3466232006997547e-02  0.0000000000000000e+00 1.5783644707787825e-01 1.0082720317765996e+00  0.0000000000000000e+00 1.1530899351697343e-01 9.7728533494914060e-01  0.0000000000000000e+00 2.0861632752715135e-02 9.4993479270209097e-02  0.0000000000000000e+00 2.1139567474380460e-02 5.3935981684226997e-01  0.0000000000000000e+00 1.1793250223615381e-01 1.1121774630790570e-02  0.0000000000000000e+00 7.4752604113916349e-02 1.6565525739586771e-02  0.0000000000000000e+00 4.1514912069413691e-02 3.2657278693234530e-02  0.0000000000000000e+00 8.6671182733457100e-02 9.3442483777749830e-01  0.0000000000000000e+00 2.8267605575034691e-02 5.6275456290448778e-02  0.0000000000000000e+00 1.7290321643063523e-02 4.2563842776806937e-01  0.0000000000000000e+00 5.7410832503818329e-02 2.1990189108104539e-02  0.0000000000