<?xml version="1.0"?>
<VTKFile type="UnstructuredGrid"  version="0.1"  >
<UnstructuredGrid>
<Piece  NumberOfPoints="4940" NumberOfCells="9650">
<Points>
<DataArray  type="Float64"  NumberOfComponents="3"  format="ascii">500 250 0  0 250 0  250 500 0  250 0 0  256.8885856082646 499.9050767557906 0  263.7719401218049 499.6203791065173 0  270.6448364229772 499.1461232471188 0  277.5020553257866 498.4826693209355 0  284.3383895508592 497.6305211460281 0  291.1486476865662 496.5903258312597 0  297.9276581259182 495.3628732847843 0  304.6702729675493 493.9490956196674 0  311.3713719748657 492.3500664368026 0  318.0258664141369 490.5670000199653 0  324.6287029687753 488.6012504015818 0  331.1748675330201 486.4543103455647 0  337.6593890460416 484.1278102064655 0  344.0773432429536 481.6235166997244 0  350.4238564271474 478.9433315480048 0  356.694109139292 476.0892900492477 0  362.88333985546 473.0635595140469 0  368.9868485575419 469.8684376402048 0  375.0000003153078 466.5063507640667 0  380.9182288257928 462.9798520074548 0  386.7370398729688 459.2916193419558 0  392.4520147244077 455.444453565817 0  398.0588135356345 451.4412761437442 0  403.5531785622926 447.285127045646 0  408.9309374414144 442.9791624087773 0  414.1880064015299 438.5266521049243 0  419.3203932989752 433.9309773069245 0  424.324200661095 429.1956279150535 0  429.1956286596235 424.3241998957182 0  433.9309780058756 419.3203925397119 0  438.5266527445345 414.1880056671062 0  442.9791630130591 408.9309367076756 0  447.2851276060475 403.5531778422888 0  451.4412766621026 398.0588128303826 0  455.4444540361634 392.4520140460735 0  459.2916197786263 386.7370392045948 0  462.9798524073514 380.9182281752347 0  466.5063511234856 374.9999996927758 0  469.8684379657123 368.9868479560565 0  473.0635598144817 362.8833392617846 0  476.0892903190255 356.6941085676214 0  478.9433317963513 350.4238558609745 0  481.6235169154735 344.0773427117675 0  484.12781039012 337.6593885555221 0  486.4543105028062 331.1748670749914 0  488.601250531677 324.6287025528375 0  490.5670001317469 318.0258660188321 0  492.3500665291326 311.3713716102628 0  493.949095695951 304.6702726271575 0  495.3628733416623 297.9276578347343 0  496.5903258712341 291.1486474470129 0  497.6305211749058 284.3383893426084 0  498.4826693388848 277.502055163614 0  499.1461232580606 270.6448362909296 0  499.6203791109319 263.7719400417897 0  499.9050767571306 256.8885855596534 0  499.9050767559877 243.1114143988867 0  499.6203791069493 236.2280598860241 0  499.1461232485393 229.3551635941651 0  498.4826693235677 222.4979446979962 0  497.6305211491849 215.6616104719064 0  496.5903258357701 208.8513523404629 0  495.3628732906988 202.0723419043604 0  493.9490956264813 195.3297270628552 0  492.3500664487791 188.6286280724281 0  490.5670000344809 181.9741336371959 0  488.6012504175981 175.3712970824318 0  486.4543103623226 168.8251325157939 0  484.1278102222298 162.3406109960628 0  481.6235167152198 155.9226567951971 0  478.9433315621651 149.5761436051346 0  476.0892900516498 143.3058908657982 0  473.063559513628 137.1166601437124 0  469.8684376406648 131.0131514433083 0  466.5063507675389 124.9999996907064 0  462.9798520124137 119.0817711822745 0  459.2916193464549 113.2629601339176 0  455.4444535642773 107.5479852733717 0  451.4412761528674 101.9411864767781 0  447.2851270583545 96.44682145403524 0  442.9791624165781 91.06906256805769 0  438.5266521117469 85.81199360630404 0  433.9309773156125 80.67960671046254 0  429.1956279150353 75.67579933888632 0  424.3241998888952 70.80437133373906 0  419.3203925223282 66.06902197812161 0  414.1880056411937 61.47334723289828 0  408.9309366751728 57.0208369601728 0  403.5531778009394 52.71487236176898 0  398.058812796452 48.55872331295853 0  392.4520140187753 44.55554594490843 0  386.7370391799677 40.70838020528396 0  380.9182281475119 37.02014757560744 0  374.9999996718656 33.49364886444181 0  368.9868479340393 30.13156202237255 0  362.8833392380029 26.93644017348339 0  356.6941085456942 23.91070967062674 0  350.4238558420009 21.0566681953261 0  344.0773426899492 18.37648307566465 0  337.6593885328982 15.87218960140942 0  331.1748670549786 13.54568949032341 0  324.6287025315056 11.39874946165088 0  318.0258660010876 9.432999863235466 0  311.3713716017894 7.649933468721599 0  304.6702726190621 6.050904302234756 0  297.9276578269805 4.637126656823085 0  291.148647441857 3.409674127905504 0  284.3383893425031 2.369478825079682 0  277.502055159398 1.517330660648639 0  270.6448362875833 0.853876741662134 0  263.7719400401456 0.3796208889774277 0  256.8885855592052 0.09492324285704967 0  243.1114143979462 0.09492324403817065 0  236.2280598850882 0.3796208931023841 0  229.3551635938215 0.8538767514891958 0  222.4979446968584 1.517330676558146 0  215.6616104703111 2.369478851036291 0  208.8513523382973 3.409674164591252 0  202.0723419066374 4.637126708856528 0  195.3297270659513 6.050904372824903 0  188.628628074828 7.649933550613184 0  181.9741336377093 9.432999965373938 0  175.3712970793675 11.39874958336037 0  168.8251325057572 13.54568964112298 0  162.340610986655 15.87218978129263 0  155.9226567874317 18.37648328793418 0  149.576143602509 21.05666843898663 0  143.3058908718157 23.91070994551046 0  137.1166601505524 26.93644048291054 0  131.0131514451933 30.13156235831508 0  124.9999996848412 33.49364923584736 0  119.0817711715717 37.0201479941652 0  113.2629601211624 40.70838066187849 0  107.5479852622251 44.55554644345162 0  101.9411864693332 48.55872385260452 0  96.44682143286516 52.71487295812284 0  91.06906254351222 57.02083760363669 0  85.81199358272519 61.4733479087879 0  80.67960667988106 66.06902271253972 0  75.67579930062769 70.80437212218331 0  70.80437129287643 75.67580015310926 0  66.06902193673014 80.67960752263491 0  61.47334718684866 85.81199441168215 0  57.02083692524275 91.0690633672404 0  52.71487232786438 96.44682224262129 0  48.55872328070024 101.941187247437 0  44.55554591578033 107.5479860232332 0  40.7083801742321 113.2629608675606 0  37.02014754791168 119.0817718975441 0  33.49364883372994 125.000000381329 0  30.13156199866361 131.0131521097709 0  26.9364401549829 137.1166607985551 0  23.91070965524918 143.3058914868915 0  21.05666818346614 149.576144185037 0  18.37648306853811 155.9226573275967 0  15.8721895918909 162.3406114925245 0  13.54568948170046 168.8251329701392 0  11.39874945301878 175.3712974960928 0  9.432999857087736 181.9741340206533 0  7.649933466342702 188.6286284076045 0  6.050904301250966 195.3297273853278 0  4.637126656808988 202.0723421730917 0  3.409674127767772 208.8513525589684 0  2.369478824521138 215.6616106615248 0  1.517330660909465 222.4979448382452 0  0.8538767414496533 229.355163714981 0  0.3796208887135322 236.2280599646376 0  0.09492324266324204 243.1114144478261 0  0.0949232442452228 256.8885856095658 0  0.3796208935834784 263.7719401236316 0  0.8538767530323526 270.6448364248016 0  1.517330679476544 277.5020553295092 0  2.369478854618649 284.3383895555228 0  3.409674170191892 291.1486476952655 0  4.6371267162381 297.9276581311522 0  6.050904381420935 304.6702729724059 0  7.649933562385399 311.3713719716595 0  9.43299997979841 318.0258664133013 0  11.3987495994252 324.6287029719946 0  13.54568965885832 331.174867545904 0  15.87218979367188 337.6593890464085 0  18.37648329843151 344.0773432384132 0  21.05666844777872 350.423856417535 0  23.91070995156048 356.6941091410045 0  26.93644048988043 362.8833398632205 0  30.13156235982007 368.9868485575877 0  33.49364924138357 375.0000003247478 0  37.0201480006036 380.9182288389023 0  40.70838066758398 386.7370398875706 0  44.55554644477201 392.4520147396792 0  48.55872386086904 398.0588135419111 0  52.71487295981296 403.5531785693063 0  57.02083760525949 408.9309374584583 0  61.47334790862246 414.1880064170849 0  66.06902271205095 419.320393319588 0  70.80437211216579 424.3242006890749 0  75.67580013809859 429.195628692521 0  80.6796075127923 433.930978054209 0  85.81199439754931 438.5266528008431 0  91.06906334717917 442.9791630582355 0  96.44682221438322 447.2851276501571 0  101.9411872243843 451.441276702356 0  107.5479859945825 455.4444540643537 0  113.2629608446994 459.2916198108319 0  119.0817718768376 462.9798524393601 0  125.0000003647644 466.5063511567065 0  131.0131521012763 469.8684379967393 0  137.1166607840049 473.0635598376539 0  143.3058914748804 476.0892903390826 0  149.5761441732679 478.9433318113714 0  155.9226573130112 481.6235169255377 0  162.3406114779862 484.1278104026658 0  168.8251329570439 486.4543105138039 0  175.3712974805475 488.601250542119 0  181.9741340135204 490.5670001408953 0  188.6286284005059 492.3500665318597 0  195.3297273788229 493.9490956972913 0  202.0723421640089 495.3628733414168 0  208.8513525529672 496.5903258712308 0  215.6616106544547 497.6305211744985 0  222.4979448327038 498.4826693384772 0  229.3551637102845 499.1461232581612 0  236.2280599621369 499.6203791111485 0  243.1114144470173 499.9050767573145 0  155.2373389820306 474.8197567317462 0  25.36256300907667 153.9152755065208 0  432.3709625126712 412.6214396304305 0  6.013151705810699 246.637913163471 0  246.6379131630491 493.986848294322 0  338.6995838441862 22.68244767887072 0  477.3175523131281 338.6995838660569 0  493.9868482700757 246.6379131399102 0  246.6201155078769 6.218451882810491 0  417.6179310263282 72.7156044707053 0  102.2232990934413 445.0100869616822 0  63.66330858966404 92.20354579482142 0  391.3105220491464 50.73522820883105 0  72.79295043967942 418.0702734974704 0  448.290574428537 108.25674339002 0  402.4604651193511 440.7462829841712 0  97.55317348421397 59.11376320116034 0  136.7376477664901 33.58246472647134 0  363.3288394375288 465.6947312928271 0  44.0678766556007 381.0860953771871 0  469.6905266180034 142.3890690100806 0  22.68244791668644 338.6995843487432 0  338.699584349159 477.317552078365 0  173.389488083762 18.6681884918202 0  483.4809734778481 179.7121987795732 0  13.50237455842738 306.4709525540879 0  305.9825168523021 487.24416992
[...]
<PointData  Vectors="f_12"> 
<DataArray  type="Float64"  Name="f_12"  NumberOfComponents="3" format="ascii">0.0000000000000000e+00 9.1614871287058619e-01 3.0809412990935058e-02  0.0000000000000000e+00 8.0600815607863796e-01 1.6749143182717849e-02  0.0000000000000000e+00 9.1276730277225560e-01 1.6133685026173292e-01  0.0000000000000000e+00 3.9372336228382143e-01 7.8519111275405472e-03  0.0000000000000000e+00 9.1230962575527708e-01 1.6226857608733547e-01  0.0000000000000000e+00 9.1204745965630507e-01 1.6280096061936292e-01  0.0000000000000000e+00 9.1188692837484919e-01 1.6312714572052536e-01  0.0000000000000000e+00 9.1189677804705760e-01 1.6310658592321667e-01  0.0000000000000000e+00 9.1204552322065746e-01 1.6280429194277421e-01  0.0000000000000000e+00 9.1233925093374824e-01 1.6220777708614403e-01  0.0000000000000000e+00 9.1276940544522089e-01 1.6133312990792384e-01  0.0000000000000000e+00 9.1331849842411394e-01 1.6021452515880916e-01  0.0000000000000000e+00 9.1398761074645729e-01 1.5884838850005886e-01  0.0000000000000000e+00 9.1477959919081187e-01 1.5722677004851821e-01  0.0000000000000000e+00 9.1573699912793050e-01 1.5525942471490217e-01  0.0000000000000000e+00 9.1668711417023052e-01 1.5330181658938016e-01  0.0000000000000000e+00 9.1785987669744995e-01 1.5087122800157360e-01  0.0000000000000000e+00 9.1901108057897929e-01 1.4847226933725610e-01  0.0000000000000000e+00 9.2024110240855539e-01 1.4589375093038215e-01  0.0000000000000000e+00 9.2151853829641450e-01 1.4319934172988719e-01  0.0000000000000000e+00 9.2280758339202862e-01 1.4045902909807573e-01  0.0000000000000000e+00 9.2413989363251281e-01 1.3759757754992996e-01  0.0000000000000000e+00 9.2549013999978236e-01 1.3466977243088663e-01  0.0000000000000000e+00 9.2682518079165110e-01 1.3174593412406682e-01  0.0000000000000000e+00 9.2819365704998091e-01 1.2871513560330125e-01  0.0000000000000000e+00 9.2961510657085089e-01 1.2552588733390802e-01  0.0000000000000000e+00 9.3109444530732643e-01 1.2216187646703582e-01  0.0000000000000000e+00 9.3254554403193080e-01 1.1881089504226365e-01  0.0000000000000000e+00 9.3398754250554639e-01 1.1541953657283527e-01  0.0000000000000000e+00 9.3543597486555152e-01 1.1193991487539533e-01  0.0000000000000000e+00 9.3679917687862091e-01 1.0858039956687933e-01  0.0000000000000000e+00 9.3810327597936038e-01 1.0526749701558398e-01  0.0000000000000000e+00 9.3935126360679844e-01 1.0199123939283866e-01  0.0000000000000000e+00 9.4054409809661177e-01 9.8744531385903306e-02  0.0000000000000000e+00 9.4172209728512535e-01 9.5400680026813969e-02  0.0000000000000000e+00 9.4285367955855504e-01 9.2034879443492548e-02  0.0000000000000000e+00 9.4391349101553412e-01 8.8704849444827358e-02  0.0000000000000000e+00 9.4488967059998596e-01 8.5401841736420306e-02  0.0000000000000000e+00 9.4575093357205731e-01 8.2188069270799011e-02  0.0000000000000000e+00 9.4648001321485498e-01 7.9124191719939119e-02  0.0000000000000000e+00 9.4708942062458390e-01 7.6158734189947105e-02  0.0000000000000000e+00 9.4760068194530656e-01 7.3167516396771909e-02  0.0000000000000000e+00 9.4800309669833072e-01 7.0148136688314849e-02  0.0000000000000000e+00 9.4825616090965315e-01 6.7217539170087728e-02  0.0000000000000000e+00 9.4834201809119345e-01 6.4390638283163076e-02  0.0000000000000000e+00 9.4825370689381161e-01 6.1682762961447236e-02  0.0000000000000000e+00 9.4798021627728535e-01 5.9091120500743458e-02  0.0000000000000000e+00 9.4751580682029068e-01 5.6578970004041176e-02  0.0000000000000000e+00 9.4683576851630891e-01 5.4055764715081653e-02  0.0000000000000000e+00 9.4593800925266980e-01 5.1604832662887345e-02  0.0000000000000000e+00 9.4479513222880018e-01 4.9277099859648885e-02  0.0000000000000000e+00 9.4340697343920010e-01 4.7075364723334109e-02  0.0000000000000000e+00 9.4174987005443089e-01 4.4979690589171291e-02  0.0000000000000000e+00 9.3978188947191332e-01 4.2927456240994151e-02  0.0000000000000000e+00 9.3748944408708068e-01 4.0926983601029053e-02  0.0000000000000000e+00 9.3486997816624839e-01 3.9016859778190027e-02  0.0000000000000000e+00 9.3190139246973946e-01 3.7203059562788861e-02  0.0000000000000000e+00 9.2858741422749524e-01 3.5490572775562813e-02  0.0000000000000000e+00 9.2489898656763869e-01 3.3848496598818216e-02  0.0000000000000000e+00 9.2090268960684751e-01 3.2325570253060286e-02  0.0000000000000000e+00 9.1113387475370911e-01 2.9346084149505427e-02  0.0000000000000000e+00 9.0566465487243020e-01 2.7992394632143553e-02  0.0000000000000000e+00 8.9981391013674739e-01 2.6751546208780886e-02  0.0000000000000000e+00 8.9337112015965348e-01 2.5536290950436344e-02  0.0000000000000000e+00 8.8638218370502353e-01 2.4377061075221040e-02  0.0000000000000000e+00 8.7881702823048180e-01 2.3260491817226853e-02  0.0000000000000000e+00 8.7080436365147706e-01 2.2227436687674056e-02  0.0000000000000000e+00 8.6234919249307862e-01 2.1268435694062358e-02  0.0000000000000000e+00 8.5336799550194053e-01 2.0360365696228854e-02  0.0000000000000000e+00 8.4378271060172927e-01 1.9490809289325686e-02  0.0000000000000000e+00 8.3356292012124056e-01 1.8654588605456789e-02  0.0000000000000000e+00 8.2294115148996949e-01 1.7877518374948845e-02  0.0000000000000000e+00 8.1193330748935977e-01 1.7157111998107533e-02  0.0000000000000000e+00 8.0056045332588777e-01 1.6488451609728023e-02  0.0000000000000000e+00 7.8869067946279592e-01 1.5852866730392018e-02  0.0000000000000000e+00 7.7628992771901717e-01 1.5245395470373735e-02  0.0000000000000000e+00 7.6345505542031100e-01 1.4668852645247815e-02  0.0000000000000000e+00 7.5040834567569414e-01 1.4136144977864792e-02  0.0000000000000000e+00 7.3726592611061914e-01 1.3648337129583538e-02  0.0000000000000000e+00 7.2397293828462550e-01 1.3195297568400852e-02  0.0000000000000000e+00 7.1033519271382173e-01 1.2763593289481241e-02  0.0000000000000000e+00 6.9646208183329750e-01 1.2355698036786624e-02  0.0000000000000000e+00 6.8235914264482145e-01 1.1968808145246953e-02  0.0000000000000000e+00 6.6837579216186682e-01 1.1612976145516174e-02  0.0000000000000000e+00 6.5460426969814856e-01 1.1288892117407497e-02  0.0000000000000000e+00 6.4105437698346424e-01 1.0992759395716542e-02  0.0000000000000000e+00 6.2759401364811007e-01 1.0717167549559172e-02  0.0000000000000000e+00 6.1410152260325590e-01 1.0456085168524936e-02  0.0000000000000000e+00 6.0060744194922278e-01 1.0207066900285555e-02  0.0000000000000000e+00 5.8726520488108191e-01 9.9748825293687806e-03  0.0000000000000000e+00 5.7431694897504504e-01 9.7630252421261072e-03  0.0000000000000000e+00 5.6189680766866523e-01 9.5725954156056225e-03  0.0000000000000000e+00 5.4994401045461583e-01 9.4006975892192892e-03  0.0000000000000000e+00 5.3848075913449223e-01 9.2446554649184935e-03  0.0000000000000000e+00 5.2743752756706841e-01 9.1014331279860930e-03  0.0000000000000000e+00 5.1643883449972516e-01 8.9633432210232886e-03  0.0000000000000000e+00 5.0567895526433460e-01 8.8337592489303104e-03  0.0000000000000000e+00 4.9548759537460801e-01 8.7173287742105428e-03  0.0000000000000000e+00 4.8559489717571136e-01 8.6086962786478625e-03  0.0000000000000000e+00 4.7615097393127392e-01 8.5100661251234343e-03  0.0000000000000000e+00 4.6761261270962173e-01 8.4262072235946305e-03  0.0000000000000000e+00 4.5959923316007945e-01 8.3526006894285056e-03  0.0000000000000000e+00 4.5215932598536701e-01 8.2866544791828697e-03  0.0000000000000000e+00 4.4516719231591478e-01 8.2272128736865565e-03  0.0000000000000000e+00 4.3862784451919606e-01 8.1733511062741914e-03  0.0000000000000000e+00 4.3247543470263300e-01 8.1242291380109310e-03  0.0000000000000000e+00 4.2674535480972231e-01 8.0797538320240871e-03  0.0000000000000000e+00 4.2146010551086305e-01 8.0399136320144261e-03  0.0000000000000000e+00 4.1652867686581607e-01 8.0035705700036673e-03  0.0000000000000000e+00 4.1197484499130960e-01 7.9704187562039969e-03  0.0000000000000000e+00 4.0792129128875670e-01 7.9418372503092752e-03  0.0000000000000000e+00 4.0438937104090594e-01 7.9179540395948739e-03  0.0000000000000000e+00 4.0138949833972992e-01 7.8990352524036592e-03  0.0000000000000000e+00 3.9874522649536498e-01 7.8826105819823876e-03  0.0000000000000000e+00 3.9662340357170739e-01 7.8695001293306744e-03  0.0000000000000000e+00 3.9491815494693155e-01 7.8588780042722836e-03  0.0000000000000000e+00 3.9318720914548883e-01 7.8496912294859014e-03  0.0000000000000000e+00 3.9203290698059440e-01 7.8404138240735863e-03  0.0000000000000000e+00 3.9257514990308440e-01 7.8453841736651347e-03  0.0000000000000000e+00 3.9304390205707751e-01 7.8481074951532153e-03  0.0000000000000000e+00 3.9386365295215153e-01 7.8527714421699358e-03  0.0000000000000000e+00 3.9517934220132805e-01 7.8610651357741406e-03  0.0000000000000000e+00 3.9697701432418525e-01 7.8724351351149580e-03  0.0000000000000000e+00 3.9907906184800107e-01 7.8855348118162718e-03  0.0000000000000000e+00 4.0162307697872679e-01 7.9017557462587734e-03  0.0000000000000000e+00 4.0405782075978991e-01 7.9162063862323537e-03  0.0000000000000000e+00 4.0763860596093826e-01 7.9409663194028226e-03  0.0000000000000000e+00 4.1136429605924502e-01 7.9670306286504840e-03  0.0000000000000000e+00 4.1540923211020930e-01 7.9961081758101633e-03  0.0000000000000000e+00 4.1959013170049592e-01 8.0255260002823486e-03  0.0000000000000000e+00 4.2417450917650940e-01 8.0592009428415053e-03  0.0000000000000000e+00 4.2924130521450288e-01 8.0984630127273801e-03  0.0000000000000000e+00 4.3444354146585268e-01 8.1391949228885700e-03  0.0000000000000000e+00 4.3988144577657878e-01 8.1822762683545595e-03  0.0000000000000000e+00 4.4556545293580468e-01 8.2285400848968251e-03  0.0000000000000000e+00 4.5154486684009426e-01 8.2791286120706617e-03  0.0000000000000000e+00 4.5790895714602919e-01 8.3352938598869140e-03  0.0000000000000000e+00 4.6464730590373354e-01 8.3970112382221167e-03  0.0000000000000000e+00 4.7167181158502075e-01 8.4635870087563549e-03  0.0000000000000000e+00 4.7904786572441527e-01 8.5367314981824646e-03  0.0000000000000000e+00 4.8681430436888790e-01 8.6173782929396814e-03  0.0000000000000000e+00 4.9492023010155867e-01 8.7054149213020241e-03  0.0000000000000000e+00 5.0331813853714202e-01 8.8005219650839749e-03  0.0000000000000000e+00 5.1190750137971419e-01 8.9016245397750549e-03  0.0000000000000000e+00 5.2063122103570014e-01 9.0078500376316612e-03  0.0000000000000000e+00 5.2942922832355377e-01 9.1184991466482547e-03  0.0000000000000000e+00 5.3829750540655597e-01 9.2336001178247064e-03  0.0000000000000000e+00 5.4723637580170137e-01 9.3533255090639516e-03  0.0000000000000000e+00 5.5636323799815146e-01 9.4805847145456607e-03  0.0000000000000000e+00 5.6576381781735774e-01 9.6184264784546537e-03  0.0000000000000000e+00 5.7557100251561333e-01 9.7695783801404548e-03  0.0000000000000000e+00 5.8567395525816646e-01 9.9334286034800379e-03  0.0000000000000000e+00 5.9600409866585513e-01 1.0109492442033066e-02  0.0000000000000000e+00 6.0642281444508805e-01 1.0294862494566102e-02  0.0000000000000000e+00 6.1682176678388689e-01 1.0487860959746834e-02  0.0000000000000000e+00 6.2710762235842610e-01 1.0687024373843536e-02  0.0000000000000000e+00 6.3750559030044163e-01 1.0897120180724583e-02  0.0000000000000000e+00 6.4787367126695206e-01 1.1116438494637421e-02  0.0000000000000000e+00 6.5819509898811857e-01 1.1346240624777645e-02  0.0000000000000000e+00 6.6883777741284234e-01 1.1596709335385171e-02  0.0000000000000000e+00 6.7978546932572881e-01 1.1872174666917893e-02  0.0000000000000000e+00 6.9086982917768025e-01 1.2168759166536074e-02  0.0000000000000000e+00 7.0168106789787366e-01 1.2473411923345385e-02  0.0000000000000000e+00 7.1267053706941241e-01 1.2802723393852968e-02  0.0000000000000000e+00 7.2327831181089841e-01 1.3136981347705606e-02  0.0000000000000000e+00 7.3378468288029552e-01 1.3486615085040418e-02  0.0000000000000000e+00 7.4416487756788985e-01 1.3858697108241783e-02  0.0000000000000000e+00 7.5472511643917828e-01 1.4264106467226327e-02  0.0000000000000000e+00 7.6540001616487108e-01 1.4708690999046238e-02  0.0000000000000000e+00 7.7597722143734671e-01 1.5185026783846371e-02  0.0000000000000000e+00 7.8629230617213253e-01 1.5683933174486308e-02  0.0000000000000000e+00 7.9628724978407084e-01 1.6203065463486419e-02  0.0000000000000000e+00 8.1554318676302406e-01 1.7330900639387158e-02  0.0000000000000000e+00 8.2495085321399841e-01 1.7961695649474134e-02  0.0000000000000000e+00 8.3421778135680968e-01 1.8649392922843011e-02  0.0000000000000000e+00 8.4322607645168657e-01 1.9383718276672877e-02  0.0000000000000000e+00 8.5184813612102050e-01 2.0155775185132823e-02  0.0000000000000000e+00 8.6005234359515281e-01 2.0963653605466339e-02  0.0000000000000000e+00 8.6789719055509218e-01 2.1820511597896330e-02  0.0000000000000000e+00 8.7546899755531637e-01 2.2747817096485594e-02  0.0000000000000000e+00 8.8277297625723194e-01 2.3758453900867976e-02  0.0000000000000000e+00 8.8972334746896586e-01 2.4845498157354783e-02  0.0000000000000000e+00 8.9622149764485382e-01 2.5989739111883445e-02  0.0000000000000000e+00 9.0225315585259713e-01 2.7182478279744612e-02  0.0000000000000000e+00 9.0787071815676279e-01 2.8449673731573571e-02  0.0000000000000000e+00 9.1315532657791032e-01 2.9827871980079960e-02  0.0000000000000000e+00 9.1806935106177801e-01 3.1312008445500542e-02  0.0000000000000000e+00 9.2257899173374736e-01 3.2893915587690684e-02  0.0000000000000000e+00 9.2666149532649555e-01 3.4550222831940168e-02  0.0000000000000000e+00 9.3032282220434881e-01 3.6281738144787551e-02  0.0000000000000000e+00 9.3362999984382089e-01 3.8154009795236185e-02  0.0000000000000000e+00 9.3658839648556280e-01 4.0165447443469615e-02  0.0000000000000000e+00 9.3918554278380817e-01 4.2309172278454571e-02  0.0000000000000000e+00 9.4141382531035844e-01 4.4540151036084434e-02  0.0000000000000000e+00 9.4329944983465885e-01 4.6867336207703204e-02  0.0000000000000000e+00 9.4486664001454868e-01 4.9352664425190096e-02  0.0000000000000000e+00 9.4612487387786237e-01 5.2018138971870777e-02  0.0000000000000000e+00 9.4708287427153526e-01 5.4838091931867186e-02  0.0000000000000000e+00 9.4776448915833955e-01 5.7762831862103098e-02  0.0000000000000000e+00 9.4817684700753013e-01 6.0769962330886100e-02  0.0000000000000000e+00 9.4833142830134609e-01 6.3952057372662574e-02  0.0000000000000000e+00 9.4823823548904074e-01 6.7313817357212813e-02  0.0000000000000000e+00 9.4791113263205118e-01 7.0839722651268436e-02  0.0000000000000000e+00 9.4738108120199238e-01 7.4467269519045393e-02  0.0000000000000000e+00 9.4667736467903307e-01 7.8153252587996838e-02  0.0000000000000000e+00 9.4579186241304014e-01 8.1961799752958864e-02  0.0000000000000000e+00 9.4471308884355609e-01 8.5958258801213008e-02  0.0000000000000000e+00 9.4347422833745265e-01 9.0067695855091140e-02  0.0000000000000000e+00 9.4210511820650533e-01 9.4245927881761393e-02  0.0000000000000000e+00 9.4063048045907616e-01 9.8472621660323972e-02  0.0000000000000000e+00 9.3909142700872761e-01 1.0265525318914268e-01  0.0000000000000000e+00 9.3746564631836660e-01 1.0686743938249008e-01  0.0000000000000000e+00 9.3573584154522027e-01 1.1117595321429138e-01  0.0000000000000000e+00 9.3393026790670852e-01 1.1552763893234527e-01  0.0000000000000000e+00 9.3206617800764346e-01 1.1989851187929361e-01  0.0000000000000000e+00 9.3024202862443639e-01 1.2408670487304514e-01  0.0000000000000000e+00 9.2842988407379523e-01 1.2816880021927574e-01  0.0000000000000000e+00 9.2667825031874695e-01 1.3205132705583084e-01  0.0000000000000000e+00 9.2499424612807890e-01 1.3573518041941462e-01  0.0000000000000000e+00 9.2335620693091414e-01 1.3927526412621008e-01  0.0000000000000000e+00 9.2177156634090185e-01 1.4265592542303596e-01  0.0000000000000000e+00 9.2023335989828503e-01 1.4590325238448115e-01  0.0000000000000000e+00 9.1874554007176157e-01 1.4902031079574291e-01  0.0000000000000000e+00 9.1738368958266392e-01 1.5185276551751106e-01  0.0000000000000000e+00 9.1616256474411961e-01 1.5437688185615067e-01  0.0000000000000000e+00 9.1508160022377194e-01 1.5660176352518887e-01  0.0000000000000000e+00 9.1415878348590773e-01 1.5849500629249538e-01  0.0000000000000000e+00 9.1340854224605617e-01 1.6002870438585851e-01  0.0000000000000000e+00 9.3324363406878341e-01 1.1714361652907646e-01  0.0000000000000000e+00 6.5263065850151170e-01 1.1226007296896240e-02  0.0000000000000000e+00 9.4139023134196442e-01 9.6353060142987529e-02  0.0000000000000000e+00 8.0193569379017837e-01 1.6521627256857199e-02  0.0000000000000000e+00 9.1360065947614466e-01 1.5963182265278578e-01  0.0000000000000000e+00 4.5071837008935556e-01 8.2803516088341706e-03  0.0000000000000000e+00 9.4771482107420546e-01 5.7566986316010094e-02  0.0000000000000000e+00 9.1352037335015912e-01 3.0002135968476763e-02  0.0000000000000000e+00 3.9591641101803082e-01 7.8742589878799119e-03  0.0000000000000000e+00 5.9496797465115081e-01 1.0111173172163264e-02  0.0000000000000000e+00 9.4634106603024104e-01 7.9660463861192410e-02  0.0000000000000000e+00 5.4455922704767812e-01 9.3227417694623487e-03  0.0000000000000000e+00 5.3314616811687254e-01 9.1789735650942752e-03  0.0000000000000000e+00 9.4799407290254711e-01 5.9211830966398170e-02  0.0000000000000000e+00 6.8979125524991902e-01 1.2171893070003329e-02  0.0000000000000000e+00 9.3349738744915922e-01 1.1657263582157031e-01  0.0000000000000000e+00 4.8451731635865541e-01 8.5993114664113298e-03  0.0000000000000000e+00 4.3919319194225748e-01 8.1831912360982775e-03  0.0000000000000000e+00 9.2394820487725826e-01 1.3800553687167799e-01  0.0000000000000000e+00 9.3805068721788920e-01 4.1332269145468559e-02  0.0000000000000000e+00 7.6968688195294011e-01 1.4944082988057855e-02  0.0000000000000000e+00 9.1061376593104371e-01 2.9140783571652860e-02  0.0000000000000000e+00 9.1886498802079775e-01 1.4877225439462252e-01  0.0000000000000000e+00 4.1241956674845109e-01 7.9826741745351905e-03  0.0000000000000000e+00 8.3747992481871414e-01 1.8966059144915639e-02  0.0000000000000000e+00 8.7952116590759311e-01 2.3301753372820960e-02  0.0000000000000000e+00 9.1414376994440005e-01 1.5852302389743564e-01  0.0000000000000000e+00 9.2293146115145863e-01 1.4017815571245654e-01  0.0000000000000000e+00 7.1912432691210459e-01 1.3009998237172244e-02  0.0000000000000000e+00 4.1663000470373779e-01 8.0117984676696345e-03  0.0000000000000000e+00 9.4064446921696354e-01 4.3787479991464436e-02  0.0000000000000000e+00 9.4675672318797577e-01 7.7811298881010391e-02  0.0000000000000000e+00 3.9839577843017260e-01 7.8882162383323851e-03  0.0000000000000000e+00 8.7407512855000868e-01 2.2634871530492047e-02  0.0000000000000000e+00 8.4805033572623223e-01 1.9813252651827422e-02  0.0000000000000000e+00 9.1248368731820295e-01 1.6190876874817975e-01  0.0000000000000000e+00 4.9245292525040046e-01 8.6884840352361090e-03  0.0000000000000000e+00 6.0275992573567161e-01 1.0234153647864164e-02  0.0000000000000000e+00 9.1721199593018232e-01 1.5220274991575494e-01  0.0000000000000000e+00 9.4007965850827091e-01 9.9990364957073613e-02  0.0000000000000000e+00 7.6233690330874071e-01 1.4584518863505959e-02  0.0000000000000000e+00 4.0275968739218232e-01 7.9167254832383516e-03  0.0000000000000000e+00 9.3043267059129076e-01 3.6418524286424621e-02  0.0000000000000000e+00 9.2938778437274794e-01 1.2602967336098439e-01  0.0000000000000000e+00 9.4527800545438723e-01 5.0197662057987188e-02  0.0000000000000000e+00 3.9492803308911223e-01 7.8665485282636630e-03  0.0000000000000000e+00 4.3177213933644865e-01 8.1249933553494275e-03  0.0000000000000000e+00 8.9629698413327386e-01 2.6068436768344583e-02  0.0000000000000000e+00 6.3467689672416161e-01 1.0863542916336334e-02  0.0000000000000000e+00 9.2784883108520599e-01 1.2945554076182478e-01  0.0000000000000000e+00 9.4459472870639205e-01 8.6417299029871414e-02  0.0000000000000000e+00 9.4555421260847128e-01 5.0709692832906383e-02  0.0000000000000000e+00 4.6340775966796566e-01 8.3919048142381634e-03  0.0000000000000000e+00 9.2876485835511902e-01 3.5511246097078453e-02  0.0000000000000000e+00 6.8666439161402892e-01 1.2060329673899637e-02  0.0000000000000000e+00 9.4817188466240510e-01 6.8334461250552411e-02  0.0000000000