<?xml version="1.0"?>
<VTKFile type="UnstructuredGrid"  version="0.1"  >
<UnstructuredGrid>
<Piece  NumberOfPoints="4940" NumberOfCells="9650">
<Points>
<DataArray  type="Float64"  NumberOfComponents="3"  format="ascii">500 250 0  0 250 0  250 500 0  250 0 0  256.8885856082646 499.9050767557906 0  263.7719401218049 499.6203791065173 0  270.6448364229772 499.1461232471188 0  277.5020553257866 498.4826693209355 0  284.3383895508592 497.6305211460281 0  291.1486476865662 496.5903258312597 0  297.9276581259182 495.3628732847843 0  304.6702729675493 493.9490956196674 0  311.3713719748657 492.3500664368026 0  318.0258664141369 490.5670000199653 0  324.6287029687753 488.6012504015818 0  331.1748675330201 486.4543103455647 0  337.6593890460416 484.1278102064655 0  344.0773432429536 481.6235166997244 0  350.4238564271474 478.9433315480048 0  356.694109139292 476.0892900492477 0  362.88333985546 473.0635595140469 0  368.9868485575419 469.8684376402048 0  375.0000003153078 466.5063507640667 0  380.9182288257928 462.9798520074548 0  386.7370398729688 459.2916193419558 0  392.4520147244077 455.444453565817 0  398.0588135356345 451.4412761437442 0  403.5531785622926 447.285127045646 0  408.9309374414144 442.9791624087773 0  414.1880064015299 438.5266521049243 0  419.3203932989752 433.9309773069245 0  424.324200661095 429.1956279150535 0  429.1956286596235 424.3241998957182 0  433.9309780058756 419.3203925397119 0  438.5266527445345 414.1880056671062 0  442.9791630130591 408.9309367076756 0  447.2851276060475 403.5531778422888 0  451.4412766621026 398.0588128303826 0  455.4444540361634 392.4520140460735 0  459.2916197786263 386.7370392045948 0  462.9798524073514 380.9182281752347 0  466.5063511234856 374.9999996927758 0  469.8684379657123 368.9868479560565 0  473.0635598144817 362.8833392617846 0  476.0892903190255 356.6941085676214 0  478.9433317963513 350.4238558609745 0  481.6235169154735 344.0773427117675 0  484.12781039012 337.6593885555221 0  486.4543105028062 331.1748670749914 0  488.601250531677 324.6287025528375 0  490.5670001317469 318.0258660188321 0  492.3500665291326 311.3713716102628 0  493.949095695951 304.6702726271575 0  495.3628733416623 297.9276578347343 0  496.5903258712341 291.1486474470129 0  497.6305211749058 284.3383893426084 0  498.4826693388848 277.502055163614 0  499.1461232580606 270.6448362909296 0  499.6203791109319 263.7719400417897 0  499.9050767571306 256.8885855596534 0  499.9050767559877 243.1114143988867 0  499.6203791069493 236.2280598860241 0  499.1461232485393 229.3551635941651 0  498.4826693235677 222.4979446979962 0  497.6305211491849 215.6616104719064 0  496.5903258357701 208.8513523404629 0  495.3628732906988 202.0723419043604 0  493.9490956264813 195.3297270628552 0  492.3500664487791 188.6286280724281 0  490.5670000344809 181.9741336371959 0  488.6012504175981 175.3712970824318 0  486.4543103623226 168.8251325157939 0  484.1278102222298 162.3406109960628 0  481.6235167152198 155.9226567951971 0  478.9433315621651 149.5761436051346 0  476.0892900516498 143.3058908657982 0  473.063559513628 137.1166601437124 0  469.8684376406648 131.0131514433083 0  466.5063507675389 124.9999996907064 0  462.9798520124137 119.0817711822745 0  459.2916193464549 113.2629601339176 0  455.4444535642773 107.5479852733717 0  451.4412761528674 101.9411864767781 0  447.2851270583545 96.44682145403524 0  442.9791624165781 91.06906256805769 0  438.5266521117469 85.81199360630404 0  433.9309773156125 80.67960671046254 0  429.1956279150353 75.67579933888632 0  424.3241998888952 70.80437133373906 0  419.3203925223282 66.06902197812161 0  414.1880056411937 61.47334723289828 0  408.9309366751728 57.0208369601728 0  403.5531778009394 52.71487236176898 0  398.058812796452 48.55872331295853 0  392.4520140187753 44.55554594490843 0  386.7370391799677 40.70838020528396 0  380.9182281475119 37.02014757560744 0  374.9999996718656 33.49364886444181 0  368.9868479340393 30.13156202237255 0  362.8833392380029 26.93644017348339 0  356.6941085456942 23.91070967062674 0  350.4238558420009 21.0566681953261 0  344.0773426899492 18.37648307566465 0  337.6593885328982 15.87218960140942 0  331.1748670549786 13.54568949032341 0  324.6287025315056 11.39874946165088 0  318.0258660010876 9.432999863235466 0  311.3713716017894 7.649933468721599 0  304.6702726190621 6.050904302234756 0  297.9276578269805 4.637126656823085 0  291.148647441857 3.409674127905504 0  284.3383893425031 2.369478825079682 0  277.502055159398 1.517330660648639 0  270.6448362875833 0.853876741662134 0  263.7719400401456 0.3796208889774277 0  256.8885855592052 0.09492324285704967 0  243.1114143979462 0.09492324403817065 0  236.2280598850882 0.3796208931023841 0  229.3551635938215 0.8538767514891958 0  222.4979446968584 1.517330676558146 0  215.6616104703111 2.369478851036291 0  208.8513523382973 3.409674164591252 0  202.0723419066374 4.637126708856528 0  195.3297270659513 6.050904372824903 0  188.628628074828 7.649933550613184 0  181.9741336377093 9.432999965373938 0  175.3712970793675 11.39874958336037 0  168.8251325057572 13.54568964112298 0  162.340610986655 15.87218978129263 0  155.9226567874317 18.37648328793418 0  149.576143602509 21.05666843898663 0  143.3058908718157 23.91070994551046 0  137.1166601505524 26.93644048291054 0  131.0131514451933 30.13156235831508 0  124.9999996848412 33.49364923584736 0  119.0817711715717 37.0201479941652 0  113.2629601211624 40.70838066187849 0  107.5479852622251 44.55554644345162 0  101.9411864693332 48.55872385260452 0  96.44682143286516 52.71487295812284 0  91.06906254351222 57.02083760363669 0  85.81199358272519 61.4733479087879 0  80.67960667988106 66.06902271253972 0  75.67579930062769 70.80437212218331 0  70.80437129287643 75.67580015310926 0  66.06902193673014 80.67960752263491 0  61.47334718684866 85.81199441168215 0  57.02083692524275 91.0690633672404 0  52.71487232786438 96.44682224262129 0  48.55872328070024 101.941187247437 0  44.55554591578033 107.5479860232332 0  40.7083801742321 113.2629608675606 0  37.02014754791168 119.0817718975441 0  33.49364883372994 125.000000381329 0  30.13156199866361 131.0131521097709 0  26.9364401549829 137.1166607985551 0  23.91070965524918 143.3058914868915 0  21.05666818346614 149.576144185037 0  18.37648306853811 155.9226573275967 0  15.8721895918909 162.3406114925245 0  13.54568948170046 168.8251329701392 0  11.39874945301878 175.3712974960928 0  9.432999857087736 181.9741340206533 0  7.649933466342702 188.6286284076045 0  6.050904301250966 195.3297273853278 0  4.637126656808988 202.0723421730917 0  3.409674127767772 208.8513525589684 0  2.369478824521138 215.6616106615248 0  1.517330660909465 222.4979448382452 0  0.8538767414496533 229.355163714981 0  0.3796208887135322 236.2280599646376 0  0.09492324266324204 243.1114144478261 0  0.0949232442452228 256.8885856095658 0  0.3796208935834784 263.7719401236316 0  0.8538767530323526 270.6448364248016 0  1.517330679476544 277.5020553295092 0  2.369478854618649 284.3383895555228 0  3.409674170191892 291.1486476952655 0  4.6371267162381 297.9276581311522 0  6.050904381420935 304.6702729724059 0  7.649933562385399 311.3713719716595 0  9.43299997979841 318.0258664133013 0  11.3987495994252 324.6287029719946 0  13.54568965885832 331.174867545904 0  15.87218979367188 337.6593890464085 0  18.37648329843151 344.0773432384132 0  21.05666844777872 350.423856417535 0  23.91070995156048 356.6941091410045 0  26.93644048988043 362.8833398632205 0  30.13156235982007 368.9868485575877 0  33.49364924138357 375.0000003247478 0  37.0201480006036 380.9182288389023 0  40.70838066758398 386.7370398875706 0  44.55554644477201 392.4520147396792 0  48.55872386086904 398.0588135419111 0  52.71487295981296 403.5531785693063 0  57.02083760525949 408.9309374584583 0  61.47334790862246 414.1880064170849 0  66.06902271205095 419.320393319588 0  70.80437211216579 424.3242006890749 0  75.67580013809859 429.195628692521 0  80.6796075127923 433.930978054209 0  85.81199439754931 438.5266528008431 0  91.06906334717917 442.9791630582355 0  96.44682221438322 447.2851276501571 0  101.9411872243843 451.441276702356 0  107.5479859945825 455.4444540643537 0  113.2629608446994 459.2916198108319 0  119.0817718768376 462.9798524393601 0  125.0000003647644 466.5063511567065 0  131.0131521012763 469.8684379967393 0  137.1166607840049 473.0635598376539 0  143.3058914748804 476.0892903390826 0  149.5761441732679 478.9433318113714 0  155.9226573130112 481.6235169255377 0  162.3406114779862 484.1278104026658 0  168.8251329570439 486.4543105138039 0  175.3712974805475 488.601250542119 0  181.9741340135204 490.5670001408953 0  188.6286284005059 492.3500665318597 0  195.3297273788229 493.9490956972913 0  202.0723421640089 495.3628733414168 0  208.8513525529672 496.5903258712308 0  215.6616106544547 497.6305211744985 0  222.4979448327038 498.4826693384772 0  229.3551637102845 499.1461232581612 0  236.2280599621369 499.6203791111485 0  243.1114144470173 499.9050767573145 0  155.2373389820306 474.8197567317462 0  25.36256300907667 153.9152755065208 0  432.3709625126712 412.6214396304305 0  6.013151705810699 246.637913163471 0  246.6379131630491 493.986848294322 0  338.6995838441862 22.68244767887072 0  477.3175523131281 338.6995838660569 0  493.9868482700757 246.6379131399102 0  246.6201155078769 6.218451882810491 0  417.6179310263282 72.7156044707053 0  102.2232990934413 445.0100869616822 0  63.66330858966404 92.20354579482142 0  391.3105220491464 50.73522820883105 0  72.79295043967942 418.0702734974704 0  448.290574428537 108.25674339002 0  402.4604651193511 440.7462829841712 0  97.55317348421397 59.11376320116034 0  136.7376477664901 33.58246472647134 0  363.3288394375288 465.6947312928271 0  44.0678766556007 381.0860953771871 0  469.6905266180034 142.3890690100806 0  22.68244791668644 338.6995843487432 0  338.699584349159 477.317552078365 0  173.389488083762 18.6681884918202 0  483.4809734778481 179.7121987795732 0  13.50237455842738 306.4709525540879 0  305.9825168523021 487.24416992
[...]
<PointData  Vectors="f_12"> 
<DataArray  type="Float64"  Name="f_12"  NumberOfComponents="3" format="ascii">0.0000000000000000e+00 9.2058570137425466e-01 3.2229452836522697e-02  0.0000000000000000e+00 8.1576775298655924e-01 1.7344363527900600e-02  0.0000000000000000e+00 9.1471350125832229e-01 1.5740656929297969e-01  0.0000000000000000e+00 4.0006517458701418e-01 7.8874618374985099e-03  0.0000000000000000e+00 9.1429855316616926e-01 1.5825706661613440e-01  0.0000000000000000e+00 9.1404468500036207e-01 1.5877659838022048e-01  0.0000000000000000e+00 9.1390409474380629e-01 1.5906424684356396e-01  0.0000000000000000e+00 9.1390856688709954e-01 1.5905505087440025e-01  0.0000000000000000e+00 9.1404061505628131e-01 1.5878504213265957e-01  0.0000000000000000e+00 9.1430165993609669e-01 1.5825103544332941e-01  0.0000000000000000e+00 9.1468953759774030e-01 1.5745660577585274e-01  0.0000000000000000e+00 9.1519719648937370e-01 1.5641504870368578e-01  0.0000000000000000e+00 9.1582449777890651e-01 1.5512521940969337e-01  0.0000000000000000e+00 9.1657191076080480e-01 1.5358408366445453e-01  0.0000000000000000e+00 9.1745458642421240e-01 1.5175796450685103e-01  0.0000000000000000e+00 9.1838120694517267e-01 1.4983411311279143e-01  0.0000000000000000e+00 9.1945651744087620e-01 1.4759002779579797e-01  0.0000000000000000e+00 9.2054889582271371e-01 1.4529762893359066e-01  0.0000000000000000e+00 9.2169319647574155e-01 1.4288183815212047e-01  0.0000000000000000e+00 9.2285957158290766e-01 1.4040293827956168e-01  0.0000000000000000e+00 9.2402352795000198e-01 1.3790942690555041e-01  0.0000000000000000e+00 9.2520188692518679e-01 1.3536165176218445e-01  0.0000000000000000e+00 9.2638438317994587e-01 1.3278132622109315e-01  0.0000000000000000e+00 9.2756598192776873e-01 1.3017704920136419e-01  0.0000000000000000e+00 9.2878372443693746e-01 1.2746430716651894e-01  0.0000000000000000e+00 9.3006462247491306e-01 1.2457677002401484e-01  0.0000000000000000e+00 9.3141762005568574e-01 1.2148876506428583e-01  0.0000000000000000e+00 9.3279821606136371e-01 1.1829178240042022e-01  0.0000000000000000e+00 9.3419753333063371e-01 1.1499514049703514e-01  0.0000000000000000e+00 9.3559713980170067e-01 1.1163152246987729e-01  0.0000000000000000e+00 9.3692064569586408e-01 1.0837183024181206e-01  0.0000000000000000e+00 9.3816427118607781e-01 1.0521825765818371e-01  0.0000000000000000e+00 9.3932987949632651e-01 1.0216586783413766e-01  0.0000000000000000e+00 9.4043782947942878e-01 9.9161371328409187e-02  0.0000000000000000e+00 9.4152915063642229e-01 9.6084514213534006e-02  0.0000000000000000e+00 9.4260182537051684e-01 9.2928902665094335e-02  0.0000000000000000e+00 9.4364439319061377e-01 8.9708466518937990e-02  0.0000000000000000e+00 9.4463216839836450e-01 8.6458686420055067e-02  0.0000000000000000e+00 9.4551895991657120e-01 8.3287005722116170e-02  0.0000000000000000e+00 9.4627259005315201e-01 8.0288364456048075e-02  0.0000000000000000e+00 9.4689999936219194e-01 7.7433094597460311e-02  0.0000000000000000e+00 9.4742888507672085e-01 7.4602344273786023e-02  0.0000000000000000e+00 9.4786639432835540e-01 7.1736018909075827e-02  0.0000000000000000e+00 9.4818948774647016e-01 6.8866007607140817e-02  0.0000000000000000e+00 9.4837598902972564e-01 6.6026975527279597e-02  0.0000000000000000e+00 9.4840327687150794e-01 6.3295904984213128e-02  0.0000000000000000e+00 9.4825475024288586e-01 6.0721313518565287e-02  0.0000000000000000e+00 9.4792845846068452e-01 5.8271845227515544e-02  0.0000000000000000e+00 9.4741451944450183e-01 5.5833290902206151e-02  0.0000000000000000e+00 9.4670323843120119e-01 5.3408884172372939e-02  0.0000000000000000e+00 9.4576275731079240e-01 5.1030174922856303e-02  0.0000000000000000e+00 9.4459247317636108e-01 4.8758672371800878e-02  0.0000000000000000e+00 9.4318186129275461e-01 4.6626066517949850e-02  0.0000000000000000e+00 9.4151208741281456e-01 4.4595041258194731e-02  0.0000000000000000e+00 9.3955216973119682e-01 4.2619761703453996e-02  0.0000000000000000e+00 9.3726291622064717e-01 4.0680866906646518e-02  0.0000000000000000e+00 9.3461668672648213e-01 3.8785418911572514e-02  0.0000000000000000e+00 9.3163820547820564e-01 3.6985357350744354e-02  0.0000000000000000e+00 9.2835107672597916e-01 3.5299421760242408e-02  0.0000000000000000e+00 9.2480355180855134e-01 3.3762365399112426e-02  0.0000000000000000e+00 9.1604867203700169e-01 3.0713482735686005e-02  0.0000000000000000e+00 9.1100782044369433e-01 2.9273946836422517e-02  0.0000000000000000e+00 9.0560605015707252e-01 2.7958454705142244e-02  0.0000000000000000e+00 8.9974582087173305e-01 2.6707364133855764e-02  0.0000000000000000e+00 8.9339743194681953e-01 2.5524745952347667e-02  0.0000000000000000e+00 8.8642322190053457e-01 2.4362758688178325e-02  0.0000000000000000e+00 8.7887344525050459e-01 2.3254222399740690e-02  0.0000000000000000e+00 8.7086477816245211e-01 2.2220720361037095e-02  0.0000000000000000e+00 8.6245297984607006e-01 2.1264970754463233e-02  0.0000000000000000e+00 8.5355769204034460e-01 2.0369299975466292e-02  0.0000000000000000e+00 8.4398957484774051e-01 1.9501048000216039e-02  0.0000000000000000e+00 8.3379920135048624e-01 1.8667769974650184e-02  0.0000000000000000e+00 8.2306667528409083e-01 1.7879039983821156e-02  0.0000000000000000e+00 8.1203763981893762e-01 1.7156092721786451e-02  0.0000000000000000e+00 8.0071928283123750e-01 1.6490472460396182e-02  0.0000000000000000e+00 7.8895548570330709e-01 1.5863672653095854e-02  0.0000000000000000e+00 7.7656946177098285e-01 1.5256896328781112e-02  0.0000000000000000e+00 7.6363576826022472e-01 1.4675939621497169e-02  0.0000000000000000e+00 7.5042994584389344e-01 1.4135139739109029e-02  0.0000000000000000e+00 7.3720028535674076e-01 1.3642160609864800e-02  0.0000000000000000e+00 7.2389986654826688e-01 1.3188987613777171e-02  0.0000000000000000e+00 7.1045608698160900e-01 1.2767525655725767e-02  0.0000000000000000e+00 6.9654043016703926e-01 1.2359250101944979e-02  0.0000000000000000e+00 6.8233835755814620e-01 1.1969228100674334e-02  0.0000000000000000e+00 6.6809168633827132e-01 1.1605385943144383e-02  0.0000000000000000e+00 6.5415846092884844e-01 1.1276729149404852e-02  0.0000000000000000e+00 6.4064130597126445e-01 1.0982304424901954e-02  0.0000000000000000e+00 6.2735407699655854e-01 1.0712335599019652e-02  0.0000000000000000e+00 6.1402933339844079e-01 1.0454985854569051e-02  0.0000000000000000e+00 6.0052320713932184e-01 1.0207131835194887e-02  0.0000000000000000e+00 5.8700268976422765e-01 9.9712692620309018e-03  0.0000000000000000e+00 5.7379544827009432e-01 9.7541031068973695e-03  0.0000000000000000e+00 5.6115586782958526e-01 9.5600084701621575e-03  0.0000000000000000e+00 5.4931877523352579e-01 9.3900561807810073e-03  0.0000000000000000e+00 5.3822487957355336e-01 9.2403822403444510e-03  0.0000000000000000e+00 5.2733998330639642e-01 9.0993197489472565e-03  0.0000000000000000e+00 5.1661330154882890e-01 8.9656141464008084e-03  0.0000000000000000e+00 5.0619461484666428e-01 8.8410891337571823e-03  0.0000000000000000e+00 4.9577993089138173e-01 8.7201103436243405e-03  0.0000000000000000e+00 4.8561048424795156e-01 8.6069043994808931e-03  0.0000000000000000e+00 4.7630750643706710e-01 8.5091070067378118e-03  0.0000000000000000e+00 4.6765631748948427e-01 8.4246591760715438e-03  0.0000000000000000e+00 4.5978916297529598e-01 8.3514355081863445e-03  0.0000000000000000e+00 4.5259035043396290e-01 8.2879900717518721e-03  0.0000000000000000e+00 4.4601534287077133e-01 8.2323369519204485e-03  0.0000000000000000e+00 4.3992418527679378e-01 8.1825039623212633e-03  0.0000000000000000e+00 4.3428057196725700e-01 8.1375009472423529e-03  0.0000000000000000e+00 4.2905335566971747e-01 8.0967431005386781e-03  0.0000000000000000e+00 4.2412161195058323e-01 8.0588337734410556e-03  0.0000000000000000e+00 4.1949942178393484e-01 8.0234519005250114e-03  0.0000000000000000e+00 4.1531689958727380e-01 7.9921641718175007e-03  0.0000000000000000e+00 4.1160553476572925e-01 7.9652272110594651e-03  0.0000000000000000e+00 4.0840045723063217e-01 7.9432401230312265e-03  0.0000000000000000e+00 4.0554589694981596e-01 7.9239033631858698e-03  0.0000000000000000e+00 4.0323633294213307e-01 7.9083418320098960e-03  0.0000000000000000e+00 4.0137546685880315e-01 7.8957728947051092e-03  0.0000000000000000e+00 3.9946557123251869e-01 7.8846424079484327e-03  0.0000000000000000e+00 3.9821081566408983e-01 7.8739111406649163e-03  0.0000000000000000e+00 3.9877990645689548e-01 7.8794670942005495e-03  0.0000000000000000e+00 3.9928037426545088e-01 7.8826349103835076e-03  0.0000000000000000e+00 4.0016282230512873e-01 7.8881071067441865e-03  0.0000000000000000e+00 4.0158026014474207e-01 7.8977871459066547e-03  0.0000000000000000e+00 4.0351275119578395e-01 7.9110336631186759e-03  0.0000000000000000e+00 4.0576206278122984e-01 7.9262208185227161e-03  0.0000000000000000e+00 4.0846327247209036e-01 7.9448267644338221e-03  0.0000000000000000e+00 4.1103870659657854e-01 7.9615068326548202e-03  0.0000000000000000e+00 4.1475596832116129e-01 7.9889700892986169e-03  0.0000000000000000e+00 4.1856670649742550e-01 8.0172432101792458e-03  0.0000000000000000e+00 4.2264354567740936e-01 8.0481019329405636e-03  0.0000000000000000e+00 4.2679565832641475e-01 8.0787184489337343e-03  0.0000000000000000e+00 4.3128771880545502e-01 8.1129502589403126e-03  0.0000000000000000e+00 4.3621411798279480e-01 8.1522317452443552e-03  0.0000000000000000e+00 4.4125277648747718e-01 8.1926192628343445e-03  0.0000000000000000e+00 4.4653614412324555e-01 8.2353158195797513e-03  0.0000000000000000e+00 4.5212258353165929e-01 8.2817040017150005e-03  0.0000000000000000e+00 4.5811180440968141e-01 8.3337008417013175e-03  0.0000000000000000e+00 4.6463584467578328e-01 8.3933490134321838e-03  0.0000000000000000e+00 4.7168989273724937e-01 8.4608808713284127e-03  0.0000000000000000e+00 4.7915625341167151e-01 8.5354296168499450e-03  0.0000000000000000e+00 4.8704124057001191e-01 8.6181807565043986e-03  0.0000000000000000e+00 4.9529075601837225e-01 8.7088176640548742e-03  0.0000000000000000e+00 5.0374873250344754e-01 8.8055321434172100e-03  0.0000000000000000e+00 5.1229289133276468e-01 8.9065773869680329e-03  0.0000000000000000e+00 5.2080602585960478e-01 9.0102620313992545e-03  0.0000000000000000e+00 5.2928633159432859e-01 9.1163096142092039e-03  0.0000000000000000e+00 5.3778664720388591e-01 9.2257047381583898e-03  0.0000000000000000e+00 5.4644029389955007e-01 9.3408379416544136e-03  0.0000000000000000e+00 5.5536541649696525e-01 9.4641883909475314e-03  0.0000000000000000e+00 5.6473921015491613e-01 9.6004064613210774e-03  0.0000000000000000e+00 5.7461318948195472e-01 9.7526672926990417e-03  0.0000000000000000e+00 5.8498844446591647e-01 9.9215333008496262e-03  0.0000000000000000e+00 5.9556563169379229e-01 1.0102420458572891e-02  0.0000000000000000e+00 6.0612357365575176e-01 1.0291015383164761e-02  0.0000000000000000e+00 6.1647302338809906e-01 1.0482525429914171e-02  0.0000000000000000e+00 6.2658504814646143e-01 1.0676511168911870e-02  0.0000000000000000e+00 6.3654626678842452e-01 1.0875617513354719e-02  0.0000000000000000e+00 6.4678825300995735e-01 1.1090534110778847e-02  0.0000000000000000e+00 6.5728958435410834e-01 1.1323539754082705e-02  0.0000000000000000e+00 6.6802051509912141e-01 1.1576847295022483e-02  0.0000000000000000e+00 6.7917896298735658e-01 1.1856794861069185e-02  0.0000000000000000e+00 6.9051225933724691e-01 1.2160332927633551e-02  0.0000000000000000e+00 7.0167677998966516e-01 1.2476365741843892e-02  0.0000000000000000e+00 7.1228085085082271e-01 1.2790474055354210e-02  0.0000000000000000e+00 7.2290825660495628e-01 1.3124252395298165e-02  0.0000000000000000e+00 7.3328883690044377e-01 1.3469125362883324e-02  0.0000000000000000e+00 7.4383305711247472e-01 1.3843500475390513e-02  0.0000000000000000e+00 7.5451839281845456e-01 1.4257238044409582e-02  0.0000000000000000e+00 7.6541179937545489e-01 1.4711288699793412e-02  0.0000000000000000e+00 7.7621201304871046e-01 1.5198428267826615e-02  0.0000000000000000e+00 7.8660156947183479e-01 1.5701809219850694e-02  0.0000000000000000e+00 7.9653141054213850e-01 1.6216495354190483e-02  0.0000000000000000e+00 8.0617862395706397e-01 1.6756213828745738e-02  0.0000000000000000e+00 8.2536251688774809e-01 1.7992467039146628e-02  0.0000000000000000e+00 8.3481712617322346e-01 1.8698309047085131e-02  0.0000000000000000e+00 8.4391692091784976e-01 1.9447280237512250e-02  0.0000000000000000e+00 8.5252180208284389e-01 2.0220383251589195e-02  0.0000000000000000e+00 8.6067050191886341e-01 2.1025671960899286e-02  0.0000000000000000e+00 8.6852019829601113e-01 2.1889872893989991e-02  0.0000000000000000e+00 8.7616410061365735e-01 2.2839078791426149e-02  0.0000000000000000e+00 8.8354658001937225e-01 2.3875736716054956e-02  0.0000000000000000e+00 8.9051617502813463e-01 2.4978174336799792e-02  0.0000000000000000e+00 8.9697694949781637e-01 2.6126443654813883e-02  0.0000000000000000e+00 9.0296163399234375e-01 2.7328665531289383e-02  0.0000000000000000e+00 9.0856809523804849e-01 2.8614087788473415e-02  0.0000000000000000e+00 9.1383518107833028e-01 3.0015209072811137e-02  0.0000000000000000e+00 9.1873786533345414e-01 3.1529705850599964e-02  0.0000000000000000e+00 9.2318864812702539e-01 3.3113793299149402e-02  0.0000000000000000e+00 9.2719214924314364e-01 3.4766679733747322e-02  0.0000000000000000e+00 9.3080924535718979e-01 3.6519196205921638e-02  0.0000000000000000e+00 9.3406523907284777e-01 3.8399634451031055e-02  0.0000000000000000e+00 9.3697311918222692e-01 4.0436300302763566e-02  0.0000000000000000e+00 9.3951069816819510e-01 4.2569560969094519e-02  0.0000000000000000e+00 9.4167817094750506e-01 4.4781919373727226e-02  0.0000000000000000e+00 9.4350708929848104e-01 4.7094000799753691e-02  0.0000000000000000e+00 9.4502917422090771e-01 4.9566085702232664e-02  0.0000000000000000e+00 9.4624982648510370e-01 5.2221715064732395e-02  0.0000000000000000e+00 9.4717610944693398e-01 5.5001143460663898e-02  0.0000000000000000e+00 9.4782747062382366e-01 5.7846432458862181e-02  0.0000000000000000e+00 9.4823007672946580e-01 6.0783514262550041e-02  0.0000000000000000e+00 9.4838332251585344e-01 6.3869863373189617e-02  0.0000000000000000e+00 9.4829020914791085e-01 6.7170142476357095e-02  0.0000000000000000e+00 9.4798251859576954e-01 7.0594082227670329e-02  0.0000000000000000e+00 9.4749518075634487e-01 7.4061809622899766e-02  0.0000000000000000e+00 9.4684867542241935e-01 7.7561244069784513e-02  0.0000000000000000e+00 9.4604028354574166e-01 8.1152407590993403e-02  0.0000000000000000e+00 9.4504870188684675e-01 8.4925822455151914e-02  0.0000000000000000e+00 9.4388518469511351e-01 8.8872636669976982e-02  0.0000000000000000e+00 9.4261390483621366e-01 9.2843035712242214e-02  0.0000000000000000e+00 9.4128066817962808e-01 9.6750541248662295e-02  0.0000000000000000e+00 9.3988958911757947e-01 1.0062038383581445e-01  0.0000000000000000e+00 9.3843492450117927e-01 1.0448248790426161e-01  0.0000000000000000e+00 9.3688131608124148e-01 1.0843520297758087e-01  0.0000000000000000e+00 9.3522218106094956e-01 1.1251013839913594e-01  0.0000000000000000e+00 9.3350545333228496e-01 1.1660786422102680e-01  0.0000000000000000e+00 9.3178398611482194e-01 1.2062195169727237e-01  0.0000000000000000e+00 9.3013999765093736e-01 1.2438773868399235e-01  0.0000000000000000e+00 9.2856736901571824e-01 1.2793213763182859e-01  0.0000000000000000e+00 9.2707079754989896e-01 1.3125712667290065e-01  0.0000000000000000e+00 9.2563419834330118e-01 1.3441001321870499e-01  0.0000000000000000e+00 9.2422811770954993e-01 1.3746103577737215e-01  0.0000000000000000e+00 9.2284595780224388e-01 1.4042566924298780e-01  0.0000000000000000e+00 9.2148688990060657e-01 1.4331265781970712e-01  0.0000000000000000e+00 9.2016354599389605e-01 1.4610232816864652e-01  0.0000000000000000e+00 9.1893204211057933e-01 1.4868076502895772e-01  0.0000000000000000e+00 9.1781594838878811e-01 1.5100394158647507e-01  0.0000000000000000e+00 9.1682576716104114e-01 1.5305583077952137e-01  0.0000000000000000e+00 9.1597878835148039e-01 1.5480487326975439e-01  0.0000000000000000e+00 9.1528589355946988e-01 1.5623114319862325e-01  0.0000000000000000e+00 9.3274517800052847e-01 1.1838744323639311e-01  0.0000000000000000e+00 6.6218910317606128e-01 1.1442566826760118e-02  0.0000000000000000e+00 9.4114501378458160e-01 9.7179628888404368e-02  0.0000000000000000e+00 8.1167616417083310e-01 1.7092933451721477e-02  0.0000000000000000e+00 9.1524713076720421e-01 1.5630964565926178e-01  0.0000000000000000e+00 4.5830797166612319e-01 8.3445713202638296e-03  0.0000000000000000e+00 9.4808959774183144e-01 5.9360804166003124e-02  0.0000000000000000e+00 9.1833238491494640e-01 3.1441045411869671e-02  0.0000000000000000e+00 4.0240539764995298e-01 7.9128098941414048e-03  0.0000000000000000e+00 6.0825718623976133e-01 1.0351049462500574e-02  0.0000000000000000e+00 9.4562859394950138e-01 8.2765626195476075e-02  0.0000000000000000e+00 5.5270930202324164e-01 9.4328373483212533e-03  0.0000000000000000e+00 5.4386380855996919e-01 9.3194148837125700e-03  0.0000000000000000e+00 9.4833336032641369e-01 6.2343676755701238e-02  0.0000000000000000e+00 7.0387892177252709e-01 1.2573926912105274e-02  0.0000000000000000e+00 9.3358977629689144e-01 1.1643224006681034e-01  0.0000000000000000e+00 4.9283086795436987e-01 8.6877928118785155e-03  0.0000000000000000e+00 4.4594665378389919e-01 8.2369720570781152e-03  0.0000000000000000e+00 9.2486335863419888e-01 1.3609432388336329e-01  0.0000000000000000e+00 9.4075770364190936e-01 4.3805507045258492e-02  0.0000000000000000e+00 7.8265250304286005e-01 1.5550928598862600e-02  0.0000000000000000e+00 9.1640161972573431e-01 3.0782930500712995e-02  0.0000000000000000e+00 9.2020890057183458e-01 1.4601081711213162e-01  0.0000000000000000e+00 4.1959627098494157e-01 8.0328170362061677e-03  0.0000000000000000e+00 8.4777796412296624e-01 1.9837386707935153e-02  0.0000000000000000e+00 8.8740937378965445e-01 2.4479858928323567e-02  0.0000000000000000e+00 9.1572237407404977e-01 1.5533374981469864e-01  0.0000000000000000e+00 9.2368987041932105e-01 1.3861675547071822e-01  0.0000000000000000e+00 7.2916679350980429e-01 1.3335467769720210e-02  0.0000000000000000e+00 4.2415796836348668e-01 8.0660769373984420e-03  0.0000000000000000e+00 9.4230867210590175e-01 4.5525806062455855e-02  0.0000000000000000e+00 9.4652283038087404e-01 7.9183458522197742e-02  0.0000000000000000e+00 4.0500644547593456e-01 7.9285476945555964e-03  0.0000000000000000e+00 8.8208508393749219e-01 2.3712707800098484e-02  0.0000000000000000e+00 8.5704532661001875e-01 2.0663767277352012e-02  0.0000000000000000e+00 9.1422213628416527e-01 1.5841227706213964e-01  0.0000000000000000e+00 5.0291713205185262e-01 8.8071924878770236e-03  0.0000000000000000e+00 6.1281968901290296e-01 1.0419152305889291e-02  0.0000000000000000e+00 9.1857187779488836e-01 1.4943016654810062e-01  0.0000000000000000e+00 9.3928488520696063e-01 1.0224406985820134e-01  0.0000000000000000e+00 7.7306332516615239e-01 1.5059291731639649e-02  0.0000000000000000e+00 4.0977317489943554e-01 7.9618303830694820e-03  0.0000000000000000e+00 9.3339200425204882e-01 3.8020537389096810e-02  0.0000000000000000e+00 9.2965818240580511e-01 1.2549387111299593e-01  0.0000000000000000e+00 9.4621223615751993e-01 5.2103634827086708e-02  0.0000000000000000e+00 4.0130765362615983e-01 7.9037139827688851e-03  0.0000000000000000e+00 4.3923344193043773e-01 8.1829090290569933e-03  0.0000000000000000e+00 9.0255562433065739e-01 2.7288048526823875e-02  0.0000000000000000e+00 6.4764162366625555e-01 1.1135228473725379e-02  0.0000000000000000e+00 9.2792762885246560e-01 1.2935581535949586e-01  0.0000000000000000e+00 9.4425061575230074e-01 8.7736622452828331e-02  0.0000000000000000e+00 9.4678093140371045e-01 5.3716257058533515e-02  0.0000000000000000e+00 4.7045020641414720e-01 8.4559730868915134e-03  0.0000000000000000e+00 9.3270012716402861e-01 3.7572715126776721e-02  0.0000000000000000e+00 6.9740950021144199e-01 1.2359462266951324e-02  0.0000000000000000e+00 9.4805745057490665e-01 7.0133328503711276e-02  0.0000000000