<?xml version="1.0"?>
<VTKFile type="UnstructuredGrid"  version="0.1"  >
<UnstructuredGrid>
<Piece  NumberOfPoints="4940" NumberOfCells="9650">
<Points>
<DataArray  type="Float64"  NumberOfComponents="3"  format="ascii">500 250 0  0 250 0  250 500 0  250 0 0  256.8885856082646 499.9050767557906 0  263.7719401218049 499.6203791065173 0  270.6448364229772 499.1461232471188 0  277.5020553257866 498.4826693209355 0  284.3383895508592 497.6305211460281 0  291.1486476865662 496.5903258312597 0  297.9276581259182 495.3628732847843 0  304.6702729675493 493.9490956196674 0  311.3713719748657 492.3500664368026 0  318.0258664141369 490.5670000199653 0  324.6287029687753 488.6012504015818 0  331.1748675330201 486.4543103455647 0  337.6593890460416 484.1278102064655 0  344.0773432429536 481.6235166997244 0  350.4238564271474 478.9433315480048 0  356.694109139292 476.0892900492477 0  362.88333985546 473.0635595140469 0  368.9868485575419 469.8684376402048 0  375.0000003153078 466.5063507640667 0  380.9182288257928 462.9798520074548 0  386.7370398729688 459.2916193419558 0  392.4520147244077 455.444453565817 0  398.0588135356345 451.4412761437442 0  403.5531785622926 447.285127045646 0  408.9309374414144 442.9791624087773 0  414.1880064015299 438.5266521049243 0  419.3203932989752 433.9309773069245 0  424.324200661095 429.1956279150535 0  429.1956286596235 424.3241998957182 0  433.9309780058756 419.3203925397119 0  438.5266527445345 414.1880056671062 0  442.9791630130591 408.9309367076756 0  447.2851276060475 403.5531778422888 0  451.4412766621026 398.0588128303826 0  455.4444540361634 392.4520140460735 0  459.2916197786263 386.7370392045948 0  462.9798524073514 380.9182281752347 0  466.5063511234856 374.9999996927758 0  469.8684379657123 368.9868479560565 0  473.0635598144817 362.8833392617846 0  476.0892903190255 356.6941085676214 0  478.9433317963513 350.4238558609745 0  481.6235169154735 344.0773427117675 0  484.12781039012 337.6593885555221 0  486.4543105028062 331.1748670749914 0  488.601250531677 324.6287025528375 0  490.5670001317469 318.0258660188321 0  492.3500665291326 311.3713716102628 0  493.949095695951 304.6702726271575 0  495.3628733416623 297.9276578347343 0  496.5903258712341 291.1486474470129 0  497.6305211749058 284.3383893426084 0  498.4826693388848 277.502055163614 0  499.1461232580606 270.6448362909296 0  499.6203791109319 263.7719400417897 0  499.9050767571306 256.8885855596534 0  499.9050767559877 243.1114143988867 0  499.6203791069493 236.2280598860241 0  499.1461232485393 229.3551635941651 0  498.4826693235677 222.4979446979962 0  497.6305211491849 215.6616104719064 0  496.5903258357701 208.8513523404629 0  495.3628732906988 202.0723419043604 0  493.9490956264813 195.3297270628552 0  492.3500664487791 188.6286280724281 0  490.5670000344809 181.9741336371959 0  488.6012504175981 175.3712970824318 0  486.4543103623226 168.8251325157939 0  484.1278102222298 162.3406109960628 0  481.6235167152198 155.9226567951971 0  478.9433315621651 149.5761436051346 0  476.0892900516498 143.3058908657982 0  473.063559513628 137.1166601437124 0  469.8684376406648 131.0131514433083 0  466.5063507675389 124.9999996907064 0  462.9798520124137 119.0817711822745 0  459.2916193464549 113.2629601339176 0  455.4444535642773 107.5479852733717 0  451.4412761528674 101.9411864767781 0  447.2851270583545 96.44682145403524 0  442.9791624165781 91.06906256805769 0  438.5266521117469 85.81199360630404 0  433.9309773156125 80.67960671046254 0  429.1956279150353 75.67579933888632 0  424.3241998888952 70.80437133373906 0  419.3203925223282 66.06902197812161 0  414.1880056411937 61.47334723289828 0  408.9309366751728 57.0208369601728 0  403.5531778009394 52.71487236176898 0  398.058812796452 48.55872331295853 0  392.4520140187753 44.55554594490843 0  386.7370391799677 40.70838020528396 0  380.9182281475119 37.02014757560744 0  374.9999996718656 33.49364886444181 0  368.9868479340393 30.13156202237255 0  362.8833392380029 26.93644017348339 0  356.6941085456942 23.91070967062674 0  350.4238558420009 21.0566681953261 0  344.0773426899492 18.37648307566465 0  337.6593885328982 15.87218960140942 0  331.1748670549786 13.54568949032341 0  324.6287025315056 11.39874946165088 0  318.0258660010876 9.432999863235466 0  311.3713716017894 7.649933468721599 0  304.6702726190621 6.050904302234756 0  297.9276578269805 4.637126656823085 0  291.148647441857 3.409674127905504 0  284.3383893425031 2.369478825079682 0  277.502055159398 1.517330660648639 0  270.6448362875833 0.853876741662134 0  263.7719400401456 0.3796208889774277 0  256.8885855592052 0.09492324285704967 0  243.1114143979462 0.09492324403817065 0  236.2280598850882 0.3796208931023841 0  229.3551635938215 0.8538767514891958 0  222.4979446968584 1.517330676558146 0  215.6616104703111 2.369478851036291 0  208.8513523382973 3.409674164591252 0  202.0723419066374 4.637126708856528 0  195.3297270659513 6.050904372824903 0  188.628628074828 7.649933550613184 0  181.9741336377093 9.432999965373938 0  175.3712970793675 11.39874958336037 0  168.8251325057572 13.54568964112298 0  162.340610986655 15.87218978129263 0  155.9226567874317 18.37648328793418 0  149.576143602509 21.05666843898663 0  143.3058908718157 23.91070994551046 0  137.1166601505524 26.93644048291054 0  131.0131514451933 30.13156235831508 0  124.9999996848412 33.49364923584736 0  119.0817711715717 37.0201479941652 0  113.2629601211624 40.70838066187849 0  107.5479852622251 44.55554644345162 0  101.9411864693332 48.55872385260452 0  96.44682143286516 52.71487295812284 0  91.06906254351222 57.02083760363669 0  85.81199358272519 61.4733479087879 0  80.67960667988106 66.06902271253972 0  75.67579930062769 70.80437212218331 0  70.80437129287643 75.67580015310926 0  66.06902193673014 80.67960752263491 0  61.47334718684866 85.81199441168215 0  57.02083692524275 91.0690633672404 0  52.71487232786438 96.44682224262129 0  48.55872328070024 101.941187247437 0  44.55554591578033 107.5479860232332 0  40.7083801742321 113.2629608675606 0  37.02014754791168 119.0817718975441 0  33.49364883372994 125.000000381329 0  30.13156199866361 131.0131521097709 0  26.9364401549829 137.1166607985551 0  23.91070965524918 143.3058914868915 0  21.05666818346614 149.576144185037 0  18.37648306853811 155.9226573275967 0  15.8721895918909 162.3406114925245 0  13.54568948170046 168.8251329701392 0  11.39874945301878 175.3712974960928 0  9.432999857087736 181.9741340206533 0  7.649933466342702 188.6286284076045 0  6.050904301250966 195.3297273853278 0  4.637126656808988 202.0723421730917 0  3.409674127767772 208.8513525589684 0  2.369478824521138 215.6616106615248 0  1.517330660909465 222.4979448382452 0  0.8538767414496533 229.355163714981 0  0.3796208887135322 236.2280599646376 0  0.09492324266324204 243.1114144478261 0  0.0949232442452228 256.8885856095658 0  0.3796208935834784 263.7719401236316 0  0.8538767530323526 270.6448364248016 0  1.517330679476544 277.5020553295092 0  2.369478854618649 284.3383895555228 0  3.409674170191892 291.1486476952655 0  4.6371267162381 297.9276581311522 0  6.050904381420935 304.6702729724059 0  7.649933562385399 311.3713719716595 0  9.43299997979841 318.0258664133013 0  11.3987495994252 324.6287029719946 0  13.54568965885832 331.174867545904 0  15.87218979367188 337.6593890464085 0  18.37648329843151 344.0773432384132 0  21.05666844777872 350.423856417535 0  23.91070995156048 356.6941091410045 0  26.93644048988043 362.8833398632205 0  30.13156235982007 368.9868485575877 0  33.49364924138357 375.0000003247478 0  37.0201480006036 380.9182288389023 0  40.70838066758398 386.7370398875706 0  44.55554644477201 392.4520147396792 0  48.55872386086904 398.0588135419111 0  52.71487295981296 403.5531785693063 0  57.02083760525949 408.9309374584583 0  61.47334790862246 414.1880064170849 0  66.06902271205095 419.320393319588 0  70.80437211216579 424.3242006890749 0  75.67580013809859 429.195628692521 0  80.6796075127923 433.930978054209 0  85.81199439754931 438.5266528008431 0  91.06906334717917 442.9791630582355 0  96.44682221438322 447.2851276501571 0  101.9411872243843 451.441276702356 0  107.5479859945825 455.4444540643537 0  113.2629608446994 459.2916198108319 0  119.0817718768376 462.9798524393601 0  125.0000003647644 466.5063511567065 0  131.0131521012763 469.8684379967393 0  137.1166607840049 473.0635598376539 0  143.3058914748804 476.0892903390826 0  149.5761441732679 478.9433318113714 0  155.9226573130112 481.6235169255377 0  162.3406114779862 484.1278104026658 0  168.8251329570439 486.4543105138039 0  175.3712974805475 488.601250542119 0  181.9741340135204 490.5670001408953 0  188.6286284005059 492.3500665318597 0  195.3297273788229 493.9490956972913 0  202.0723421640089 495.3628733414168 0  208.8513525529672 496.5903258712308 0  215.6616106544547 497.6305211744985 0  222.4979448327038 498.4826693384772 0  229.3551637102845 499.1461232581612 0  236.2280599621369 499.6203791111485 0  243.1114144470173 499.9050767573145 0  155.2373389820306 474.8197567317462 0  25.36256300907667 153.9152755065208 0  432.3709625126712 412.6214396304305 0  6.013151705810699 246.637913163471 0  246.6379131630491 493.986848294322 0  338.6995838441862 22.68244767887072 0  477.3175523131281 338.6995838660569 0  493.9868482700757 246.6379131399102 0  246.6201155078769 6.218451882810491 0  417.6179310263282 72.7156044707053 0  102.2232990934413 445.0100869616822 0  63.66330858966404 92.20354579482142 0  391.3105220491464 50.73522820883105 0  72.79295043967942 418.0702734974704 0  448.290574428537 108.25674339002 0  402.4604651193511 440.7462829841712 0  97.55317348421397 59.11376320116034 0  136.7376477664901 33.58246472647134 0  363.3288394375288 465.6947312928271 0  44.0678766556007 381.0860953771871 0  469.6905266180034 142.3890690100806 0  22.68244791668644 338.6995843487432 0  338.699584349159 477.317552078365 0  173.389488083762 18.6681884918202 0  483.4809734778481 179.7121987795732 0  13.50237455842738 306.4709525540879 0  305.9825168523021 487.24416992
[...]
<PointData  Vectors="f_12"> 
<DataArray  type="Float64"  Name="f_12"  NumberOfComponents="3" format="ascii">0.0000000000000000e+00 4.1482796911270536e-01 8.0729512277169027e-03  0.0000000000000000e+00 2.2277043918793793e-01 7.9570026744444459e-03  0.0000000000000000e+00 8.9189113569644152e-01 2.5211603546575201e-02  0.0000000000000000e+00 5.5789254333470747e-02 2.2493651831196983e-02  0.0000000000000000e+00 8.9266503251976104e-01 2.5343183464154543e-02  0.0000000000000000e+00 8.9312972144080027e-01 2.5423289846887683e-02  0.0000000000000000e+00 8.9338779962851556e-01 2.5467788452165185e-02  0.0000000000000000e+00 8.9337849356056087e-01 2.5466334265646297e-02  0.0000000000000000e+00 8.9313694085461726e-01 2.5424450309343382e-02  0.0000000000000000e+00 8.9265814293214063e-01 2.5341568124397532e-02  0.0000000000000000e+00 8.9193914376715666e-01 2.5218421545155162e-02  0.0000000000000000e+00 8.9098459628934745e-01 2.5057333397844151e-02  0.0000000000000000e+00 8.8978253534487639e-01 2.4858078996298699e-02  0.0000000000000000e+00 8.8831443748351591e-01 2.4620266088448757e-02  0.0000000000000000e+00 8.8652706312856588e-01 2.4338318261593481e-02  0.0000000000000000e+00 8.8459999294405078e-01 2.4042311036562888e-02  0.0000000000000000e+00 8.8225738157351219e-01 2.3696390574815915e-02  0.0000000000000000e+00 8.7977516454932414e-01 2.3344481559509384e-02  0.0000000000000000e+00 8.7705033104066787e-01 2.2973832003081490e-02  0.0000000000000000e+00 8.7413103741128206e-01 2.2593611421718802e-02  0.0000000000000000e+00 8.7105112562854625e-01 2.2212320035870786e-02  0.0000000000000000e+00 8.6773527243272075e-01 2.1824398520587124e-02  0.0000000000000000e+00 8.6421212274261239e-01 2.1432687647660303e-02  0.0000000000000000e+00 8.6048327221524834e-01 2.1038960838525064e-02  0.0000000000000000e+00 8.5640916893811003e-01 2.0630415570654488e-02  0.0000000000000000e+00 8.5185551758664324e-01 2.0197225282538086e-02  0.0000000000000000e+00 8.4674812739391736e-01 1.9734812635248934e-02  0.0000000000000000e+00 8.4119294925028898e-01 1.9258249382187859e-02  0.0000000000000000e+00 8.3514207545809216e-01 1.8769332321444798e-02  0.0000000000000000e+00 8.2859034440687940e-01 1.8271954100415856e-02  0.0000000000000000e+00 8.2182382149567113e-01 1.7793423184171493e-02  0.0000000000000000e+00 8.1480497771477978e-01 1.7333705478063309e-02  0.0000000000000000e+00 8.0754079852206195e-01 1.6891650217141674e-02  0.0000000000000000e+00 7.9991760364328757e-01 1.6458236424590267e-02  0.0000000000000000e+00 7.9160866311255917e-01 1.6016314041519215e-02  0.0000000000000000e+00 7.8259422699734904e-01 1.5565161751330629e-02  0.0000000000000000e+00 7.7287597797248309e-01 1.5106134331209576e-02  0.0000000000000000e+00 7.6245123603797726e-01 1.4646375225775618e-02  0.0000000000000000e+00 7.5156841247561212e-01 1.4202708789931299e-02  0.0000000000000000e+00 7.4053106172586869e-01 1.3788249241764210e-02  0.0000000000000000e+00 7.2925729166942366e-01 1.3398022969265020e-02  0.0000000000000000e+00 7.1733737004169895e-01 1.3013923961432411e-02  0.0000000000000000e+00 7.0455739531200867e-01 1.2625959552141677e-02  0.0000000000000000e+00 6.9102983697387554e-01 1.2241332255636776e-02  0.0000000000000000e+00 6.7686149941124241e-01 1.1865149563265518e-02  0.0000000000000000e+00 6.6239328813248377e-01 1.1508761019819359e-02  0.0000000000000000e+00 6.4781113638027432e-01 1.1179121317834082e-02  0.0000000000000000e+00 6.3301400089395021e-01 1.0872100318141505e-02  0.0000000000000000e+00 6.1745455419003148e-01 1.0568754904575687e-02  0.0000000000000000e+00 6.0125479293873907e-01 1.0270013646188616e-02  0.0000000000000000e+00 5.8457651324864213e-01 9.9829754819477524e-03  0.0000000000000000e+00 5.6781582158152089e-01 9.7149792105060053e-03  0.0000000000000000e+00 5.5116943939096885e-01 9.4726870999710076e-03  0.0000000000000000e+00 5.3442737658982842e-01 9.2485482392566740e-03  0.0000000000000000e+00 5.1738864502871484e-01 9.0354981078275241e-03  0.0000000000000000e+00 5.0001092442886352e-01 8.8326172293762325e-03  0.0000000000000000e+00 4.8240091770790955e-01 8.6401155815909892e-03  0.0000000000000000e+00 4.6502299216406412e-01 8.4674776777598874e-03  0.0000000000000000e+00 4.4805975366612660e-01 8.3111439287718927e-03  0.0000000000000000e+00 4.3169927383959178e-01 8.1857305480071817e-03  0.0000000000000000e+00 3.9799346798422891e-01 7.9531313456735336e-03  0.0000000000000000e+00 3.8149011324283766e-01 7.8569825137540690e-03  0.0000000000000000e+00 3.6575862825204986e-01 7.7866009294627805e-03  0.0000000000000000e+00 3.5038159467388924e-01 7.7272828849983891e-03  0.0000000000000000e+00 3.3536905767083569e-01 7.6889562570184415e-03  0.0000000000000000e+00 3.2041834265240621e-01 7.6563645626002005e-03  0.0000000000000000e+00 3.0588153738317297e-01 7.6420906532891171e-03  0.0000000000000000e+00 2.9199870557863866e-01 7.6449116497686476e-03  0.0000000000000000e+00 2.7881373333760667e-01 7.6666156875937995e-03  0.0000000000000000e+00 2.6613083314058444e-01 7.7059924590931741e-03  0.0000000000000000e+00 2.5368091316250468e-01 7.7579199712881778e-03  0.0000000000000000e+00 2.4161748674034067e-01 7.8263516175528687e-03  0.0000000000000000e+00 2.3005663175190999e-01 7.9110078599080019e-03  0.0000000000000000e+00 2.1924228471431259e-01 8.0140168225374554e-03  0.0000000000000000e+00 2.0905800858903981e-01 8.1345776572927676e-03  0.0000000000000000e+00 1.9929241713547707e-01 8.2735085603231218e-03  0.0000000000000000e+00 1.8978995565702045e-01 8.4291515919221478e-03  0.0000000000000000e+00 1.8064582916043501e-01 8.6034711582019859e-03  0.0000000000000000e+00 1.7204389154193611e-01 8.7960250060751706e-03  0.0000000000000000e+00 1.6406697840196705e-01 9.0055585074298485e-03  0.0000000000000000e+00 1.5658824057362941e-01 9.2323490894107400e-03  0.0000000000000000e+00 1.4951120407610230e-01 9.4785727456354052e-03  0.0000000000000000e+00 1.4262898883435038e-01 9.7471494435020321e-03  0.0000000000000000e+00 1.3604956282388636e-01 1.0035911362767267e-02  0.0000000000000000e+00 1.2986877884889084e-01 1.0343536358247019e-02  0.0000000000000000e+00 1.2418925384005344e-01 1.0665701877902512e-02  0.0000000000000000e+00 1.1897671638746507e-01 1.1000750541968968e-02  0.0000000000000000e+00 1.1409693056646991e-01 1.1352506529054384e-02  0.0000000000000000e+00 1.0941796755582098e-01 1.1723755945952983e-02  0.0000000000000000e+00 1.0489070534866821e-01 1.2121500259033796e-02  0.0000000000000000e+00 1.0057205966739910e-01 1.2540890134214435e-02  0.0000000000000000e+00 9.6552887826704223e-02 1.2975138369876283e-02  0.0000000000000000e+00 9.2877989146613896e-02 1.3418285546481003e-02  0.0000000000000000e+00 8.9567950704825552e-02 1.3859908681467151e-02  0.0000000000000000e+00 8.6566972178537122e-02 1.4299966046505146e-02  0.0000000000000000e+00 8.3703583209252447e-02 1.4754682770564215e-02  0.0000000000000000e+00 8.0958744962564264e-02 1.5226502276069346e-02  0.0000000000000000e+00 7.8371597885163444e-02 1.5708466704472211e-02  0.0000000000000000e+00 7.5861057181254021e-02 1.6211729496719788e-02  0.0000000000000000e+00 7.3482477538074437e-02 1.6727825968820307e-02  0.0000000000000000e+00 7.1373027188704821e-02 1.7224444282112839e-02  0.0000000000000000e+00 6.9465702219405595e-02 1.7713899143799609e-02  0.0000000000000000e+00 6.7767256903848841e-02 1.8178312940162249e-02  0.0000000000000000e+00 6.6240769206163452e-02 1.8623824571976609e-02  0.0000000000000000e+00 6.4866497376903309e-02 1.9047555959339109e-02  0.0000000000000000e+00 6.3609265164210324e-02 1.9455393007917411e-02  0.0000000000000000e+00 6.2457475224634899e-02 1.9846051375797636e-02  0.0000000000000000e+00 6.1402608276431778e-02 2.0219238222947265e-02  0.0000000000000000e+00 6.0417990847231380e-02 2.0580866774627091e-02  0.0000000000000000e+00 5.9504257201185552e-02 2.0927234278947521e-02  0.0000000000000000e+00 5.8686547373782330e-02 2.1248369805977520e-02  0.0000000000000000e+00 5.7969477954647707e-02 2.1540598284635282e-02  0.0000000000000000e+00 5.7357449810824523e-02 2.1799725420709532e-02  0.0000000000000000e+00 5.6816396838772237e-02 2.2034136628588216e-02  0.0000000000000000e+00 5.6381954057590479e-02 2.2226359284930289e-02  0.0000000000000000e+00 5.6033333213872868e-02 2.2382496719246487e-02  0.0000000000000000e+00 5.5680492939103446e-02 2.2547361177347805e-02  0.0000000000000000e+00 5.5441094141513610e-02 2.2648701964155214e-02  0.0000000000000000e+00 5.5551664902071578e-02 2.2604246056747913e-02  0.0000000000000000e+00 5.5644590192978065e-02 2.2560755494356044e-02  0.0000000000000000e+00 5.5808480247113511e-02 2.2484663788711581e-02  0.0000000000000000e+00 5.6074148729324612e-02 2.2365426275492619e-02  0.0000000000000000e+00 5.6437481928664338e-02 2.2203493943280014e-02  0.0000000000000000e+00 5.6862082706033379e-02 2.2016780794039806e-02  0.0000000000000000e+00 5.7375532685768865e-02 2.1795662080488151e-02  0.0000000000000000e+00 5.7865176695675716e-02 2.1585314028012084e-02  0.0000000000000000e+00 5.8584999622114484e-02 2.1292474789599034e-02  0.0000000000000000e+00 5.9329159404164521e-02 2.0997706706970737e-02  0.0000000000000000e+00 6.0133399259610913e-02 2.0689814830809849e-02  0.0000000000000000e+00 6.0957629895616317e-02 2.0379317559671383e-02  0.0000000000000000e+00 6.1859692262922955e-02 2.0052639729749799e-02  0.0000000000000000e+00 6.2861031467894971e-02 1.9705910889846034e-02  0.0000000000000000e+00 6.3894744040861678e-02 1.9359875691961882e-02  0.0000000000000000e+00 6.4988694289321067e-02 1.9006254479450400e-02  0.0000000000000000e+00 6.6157877677215010e-02 1.8643841751053356e-02  0.0000000000000000e+00 6.7427231395868065e-02 1.8269368664646783e-02  0.0000000000000000e+00 6.8831951582735237e-02 1.7878171954562067e-02  0.0000000000000000e+00 7.0376661495686985e-02 1.7471763114160127e-02  0.0000000000000000e+00 7.2043116212294075e-02 1.7058114104568787e-02  0.0000000000000000e+00 7.3843362960900841e-02 1.6639696508224704e-02  0.0000000000000000e+00 7.5773970402988985e-02 1.6220080457895129e-02  0.0000000000000000e+00 7.7805179170792077e-02 1.5807257027358853e-02  0.0000000000000000e+00 7.9910557104872687e-02 1.5406209990056575e-02  0.0000000000000000e+00 8.2060883337218685e-02 1.5021695684832552e-02  0.0000000000000000e+00 8.4253219975095550e-02 1.4652871765772917e-02  0.0000000000000000e+00 8.6499538175543206e-02 1.4297485674053232e-02  0.0000000000000000e+00 8.8836631406032651e-02 1.3950564817567446e-02  0.0000000000000000e+00 9.1303344488873617e-02 1.3608099809944148e-02  0.0000000000000000e+00 9.3964260036841898e-02 1.3265254311950444e-02  0.0000000000000000e+00 9.6858874251417107e-02 1.2922908787674938e-02  0.0000000000000000e+00 1.0000930347998642e-01 1.2580351945046250e-02  0.0000000000000000e+00 1.0334698557151926e-01 1.2247281671403520e-02  0.0000000000000000e+00 1.0681013422586179e-01 1.1928996595851397e-02  0.0000000000000000e+00 1.1033355511524043e-01 1.1628700626914665e-02  0.0000000000000000e+00 1.1390007640444812e-01 1.1346398678936035e-02  0.0000000000000000e+00 1.1753326040155818e-01 1.1080159322516148e-02  0.0000000000000000e+00 1.2140420821715320e-01 1.0818878091443983e-02  0.0000000000000000e+00 1.2552409755294555e-01 1.0564425875040804e-02  0.0000000000000000e+00 1.2992058766092909e-01 1.0318555040408685e-02  0.0000000000000000e+00 1.3472017416383059e-01 1.0074874236935025e-02  0.0000000000000000e+00 1.3986051926292487e-01 9.8412336547322801e-03  0.0000000000000000e+00 1.4520202818538264e-01 9.6207132317549775e-03  0.0000000000000000e+00 1.5053014478671445e-01 9.4185208444484830e-03  0.0000000000000000e+00 1.5614394900093556e-01 9.2254334270045393e-03  0.0000000000000000e+00 1.6190008970682621e-01 9.0457104960967177e-03  0.0000000000000000e+00 1.6805614020551499e-01 8.8714305421971843e-03  0.0000000000000000e+00 1.7468672699053528e-01 8.7106145208814389e-03  0.0000000000000000e+00 1.8189944585646797e-01 8.5543891962431857e-03  0.0000000000000000e+00 1.8956593475591760e-01 8.4110621154118888e-03  0.0000000000000000e+00 1.9746392406808277e-01 8.2802693492283648e-03  0.0000000000000000e+00 2.0552097042190767e-01 8.1611920465634296e-03  0.0000000000000000e+00 2.1387043333294153e-01 8.0530261294626034e-03  0.0000000000000000e+00 2.3239102149528462e-01 7.8722125804409366e-03  0.0000000000000000e+00 2.4269803913531890e-01 7.7998514682590349e-03  0.0000000000000000e+00 2.5351063492377796e-01 7.7416059138183243e-03  0.0000000000000000e+00 2.6461965356971173e-01 7.6930507066381411e-03  0.0000000000000000e+00 2.7603634729573778e-01 7.6563528390071137e-03  0.0000000000000000e+00 2.8800825646730382e-01 7.6326159263939717e-03  0.0000000000000000e+00 3.0079523778769146e-01 7.6253371818535047e-03  0.0000000000000000e+00 3.1443809297866776e-01 7.6346302598456319e-03  0.0000000000000000e+00 3.2870055395099562e-01 7.6589291308400333e-03  0.0000000000000000e+00 3.4330925508851018e-01 7.6951053964050579e-03  0.0000000000000000e+00 3.5824640563636057e-01 7.7449645572558855e-03  0.0000000000000000e+00 3.7374546343700393e-01 7.8095688135409545e-03  0.0000000000000000e+00 3.9003221342350447e-01 7.8962042671986993e-03  0.0000000000000000e+00 4.0708474987552556e-01 8.0038507924541837e-03  0.0000000000000000e+00 4.2446385759757232e-01 8.1259276303914055e-03  0.0000000000000000e+00 4.4204181923459135e-01 8.2624127314030304e-03  0.0000000000000000e+00 4.5994633761205933e-01 8.4169233212215196e-03  0.0000000000000000e+00 4.7829460798435020e-01 8.5924426923007155e-03  0.0000000000000000e+00 4.9724078573590152e-01 8.7986993587565558e-03  0.0000000000000000e+00 5.1630498971682215e-01 9.0207625099246978e-03  0.0000000000000000e+00 5.3525738534911715e-01 9.2594383895301564e-03  0.0000000000000000e+00 5.5406533205234054e-01 9.5153593270256593e-03  0.0000000000000000e+00 5.7300101633619083e-01 9.7980332894456214e-03  0.0000000000000000e+00 5.9212305869862236e-01 1.0113760035030429e-02  0.0000000000000000e+00 6.1103020143887743e-01 1.0452307784669030e-02  0.0000000000000000e+00 6.2934529588736221e-01 1.0804637905717769e-02  0.0000000000000000e+00 6.4712190155376315e-01 1.1172868527748861e-02  0.0000000000000000e+00 6.6446270153281284e-01 1.1566826195820222e-02  0.0000000000000000e+00 6.8163319160780744e-01 1.1999158478485063e-02  0.0000000000000000e+00 6.9825238821748514e-01 1.2454577291872933e-02  0.0000000000000000e+00 7.1400780277074627e-01 1.2921256348263868e-02  0.0000000000000000e+00 7.2881869367087504e-01 1.3395959288147262e-02  0.0000000000000000e+00 7.4287420757387801e-01 1.3887116959851167e-02  0.0000000000000000e+00 7.5642561325317770e-01 1.4410792903024959e-02  0.0000000000000000e+00 7.6947012871888376e-01 1.4966974000587484e-02  0.0000000000000000e+00 7.8163825449848623e-01 1.5531684549174756e-02  0.0000000000000000e+00 7.9278906944945027e-01 1.6091618703594525e-02  0.0000000000000000e+00 8.0306580814112916e-01 1.6648258054196324e-02  0.0000000000000000e+00 8.1253767941204469e-01 1.7206709710211036e-02  0.0000000000000000e+00 8.2143551762784917e-01 1.7783868375249437e-02  0.0000000000000000e+00 8.2988442732248902e-01 1.8384228558797264e-02  0.0000000000000000e+00 8.3775067284864957e-01 1.8992292757221387e-02  0.0000000000000000e+00 8.4493766450450269e-01 1.9593017830149623e-02  0.0000000000000000e+00 8.5127460205499950e-01 2.0157001711313762e-02  0.0000000000000000e+00 8.5689440910656900e-01 2.0691374294623394e-02  0.0000000000000000e+00 8.6185378559932024e-01 2.1194661512380954e-02  0.0000000000000000e+00 8.6629618517572071e-01 2.1672672456667451e-02  0.0000000000000000e+00 8.7035568951000575e-01 2.2136785087477209e-02  0.0000000000000000e+00 8.7406013022666218e-01 2.2591464782161910e-02  0.0000000000000000e+00 8.7746128239318044e-01 2.3035714149423313e-02  0.0000000000000000e+00 8.8059216207217839e-01 2.3465666648966002e-02  0.0000000000000000e+00 8.8335267428550623e-01 2.3863540958297139e-02  0.0000000000000000e+00 8.8573724799134046e-01 2.4222692844518966e-02  0.0000000000000000e+00 8.8777248007623699e-01 2.4539540784634339e-02  0.0000000000000000e+00 8.8946213379568562e-01 2.4809559875621227e-02  0.0000000000000000e+00 8.9080401311739155e-01 2.5029733659712141e-02  0.0000000000000000e+00 8.4094683776417900e-01 1.9256463096939087e-02  0.0000000000000000e+00 1.2752482131999598e-01 1.0454469394659634e-02  0.0000000000000000e+00 7.9457930212732875e-01 1.6172468468832659e-02  0.0000000000000000e+00 2.1891631281304524e-01 7.9998747758322063e-03  0.0000000000000000e+00 8.9084479098074143e-01 2.5038557473878398e-02  0.0000000000000000e+00 6.7465280258706808e-02 1.8278630677601236e-02  0.0000000000000000e+00 6.3960337866088934e-01 1.1008278056654082e-02  0.0000000000000000e+00 4.0605182023986142e-01 8.0096030754170985e-03  0.0000000000000000e+00 5.6247826083896155e-02 2.2314527805560883e-02  0.0000000000000000e+00 1.0747007765186513e-01 1.1894319515349016e-02  0.0000000000000000e+00 7.4874191520502409e-01 1.4109736983749481e-02  0.0000000000000000e+00 9.0577340410750343e-02 1.3715212758890444e-02  0.0000000000000000e+00 8.8093195940937022e-02 1.4077638757773365e-02  0.0000000000000000e+00 6.5597917506842041e-01 1.1371250902162238e-02  0.0000000000000000e+00 1.4621231129541512e-01 9.6058745375271985e-03  0.0000000000000000e+00 8.3777755305348489e-01 1.8980494144203240e-02  0.0000000000000000e+00 7.5209314902812893e-02 1.6352237585917855e-02  0.0000000000000000e+00 6.4877314211365500e-02 1.9056558826500619e-02  0.0000000000000000e+00 8.6866784218822879e-01 2.1933477254939288e-02  0.0000000000000000e+00 5.2692591144510015e-01 9.1542015208715324e-03  0.0000000000000000e+00 1.9436937085931583e-01 8.3527255390781294e-03  0.0000000000000000e+00 3.9868790135816462e-01 7.9509864273457770e-03  0.0000000000000000e+00 8.8052042434812283e-01 2.3450984715298728e-02  0.0000000000000000e+00 5.9546903834997812e-02 2.0932969582015216e-02  0.0000000000000000e+00 2.5847283024046719e-01 7.7376203120633896e-03  0.0000000000000000e+00 3.2220156072993406e-01 7.6493239449742477e-03  0.0000000000000000e+00 8.8993887548497030e-01 2.4886521867557850e-02  0.0000000000000000e+00 8.7178335148582886e-01 2.2311746604736248e-02  0.0000000000000000e+00 1.5960331290555319e-01 9.1193422711514094e-03  0.0000000000000000e+00 6.0439916633791023e-02 2.0590696911367518e-02  0.0000000000000000e+00 5.4210573995779576e-01 9.3509947861326846e-03  0.0000000000000000e+00 7.3618762719272246e-01 1.3636409001471594e-02  0.0000000000000000e+00 5.6735088192722535e-02 2.2093435830262492e-02  0.0000000000000000e+00 3.1187943641695332e-01 7.6470102268501291e-03  0.0000000000000000e+00 2.7086846320289309e-01 7.6737665816967848e-03  0.0000000000000000e+00 8.9276977856382544e-01 2.5363442027183620e-02  0.0000000000000000e+00 7.7588106750921260e-02 1.5870964195660992e-02  0.0000000000000000e+00 1.0909039365321704e-01 1.1738072674660592e-02  0.0000000000000000e+00 8.8409550573877982e-01 2.3976443010443910e-02  0.0000000000000000e+00 8.0709532496456537e-01 1.6881668881317289e-02  0.0000000000000000e+00 1.8729911104295097e-01 8.4556220187988421e-03  0.0000000000000000e+00 5.7639305923605874e-02 2.1705598281662436e-02  0.0000000000000000e+00 4.7500522236609050e-01 8.5663929595802529e-03  0.0000000000000000e+00 8.5326507520324557e-01 2.0331539744174062e-02  0.0000000000000000e+00 5.9210149506645238e-01 1.0111808034329499e-02  0.0000000000000000e+00 5.6039443848827100e-02 2.2403778961921573e-02  0.0000000000000000e+00 6.3479273742429496e-02 1.9513052800093418e-02  0.0000000000000000e+00 3.5750688852925688e-01 7.7544263268624651e-03  0.0000000000000000e+00 1.2165663960467407e-01 1.0826873032259845e-02  0.0000000000000000e+00 8.5900537612483141e-01 2.0904473890290435e-02  0.0000000000000000e+00 7.6655795711707142e-01 1.4825502454264058e-02  0.0000000000000000e+00 6.0234056042477457e-01 1.0295509548614197e-02  0.0000000000000000e+00 7.0118695805401796e-02 1.7552966080677079e-02  0.0000000000000000e+00 4.7028842984307401e-01 8.5149705036336263e-03  0.0000000000000000e+00 1.4315160954919576e-01 9.7077095066185389e-03  0.0000000000000000e+00 6.9700993720039428e-01 1.2410044197363093e-02  0.0000000000