<?xml version="1.0"?>
<VTKFile type="UnstructuredGrid"  version="0.1"  >
<UnstructuredGrid>
<Piece  NumberOfPoints="4940" NumberOfCells="9650">
<Points>
<DataArray  type="Float64"  NumberOfComponents="3"  format="ascii">500 250 0  0 250 0  250 500 0  250 0 0  256.8885856082646 499.9050767557906 0  263.7719401218049 499.6203791065173 0  270.6448364229772 499.1461232471188 0  277.5020553257866 498.4826693209355 0  284.3383895508592 497.6305211460281 0  291.1486476865662 496.5903258312597 0  297.9276581259182 495.3628732847843 0  304.6702729675493 493.9490956196674 0  311.3713719748657 492.3500664368026 0  318.0258664141369 490.5670000199653 0  324.6287029687753 488.6012504015818 0  331.1748675330201 486.4543103455647 0  337.6593890460416 484.1278102064655 0  344.0773432429536 481.6235166997244 0  350.4238564271474 478.9433315480048 0  356.694109139292 476.0892900492477 0  362.88333985546 473.0635595140469 0  368.9868485575419 469.8684376402048 0  375.0000003153078 466.5063507640667 0  380.9182288257928 462.9798520074548 0  386.7370398729688 459.2916193419558 0  392.4520147244077 455.444453565817 0  398.0588135356345 451.4412761437442 0  403.5531785622926 447.285127045646 0  408.9309374414144 442.9791624087773 0  414.1880064015299 438.5266521049243 0  419.3203932989752 433.9309773069245 0  424.324200661095 429.1956279150535 0  429.1956286596235 424.3241998957182 0  433.9309780058756 419.3203925397119 0  438.5266527445345 414.1880056671062 0  442.9791630130591 408.9309367076756 0  447.2851276060475 403.5531778422888 0  451.4412766621026 398.0588128303826 0  455.4444540361634 392.4520140460735 0  459.2916197786263 386.7370392045948 0  462.9798524073514 380.9182281752347 0  466.5063511234856 374.9999996927758 0  469.8684379657123 368.9868479560565 0  473.0635598144817 362.8833392617846 0  476.0892903190255 356.6941085676214 0  478.9433317963513 350.4238558609745 0  481.6235169154735 344.0773427117675 0  484.12781039012 337.6593885555221 0  486.4543105028062 331.1748670749914 0  488.601250531677 324.6287025528375 0  490.5670001317469 318.0258660188321 0  492.3500665291326 311.3713716102628 0  493.949095695951 304.6702726271575 0  495.3628733416623 297.9276578347343 0  496.5903258712341 291.1486474470129 0  497.6305211749058 284.3383893426084 0  498.4826693388848 277.502055163614 0  499.1461232580606 270.6448362909296 0  499.6203791109319 263.7719400417897 0  499.9050767571306 256.8885855596534 0  499.9050767559877 243.1114143988867 0  499.6203791069493 236.2280598860241 0  499.1461232485393 229.3551635941651 0  498.4826693235677 222.4979446979962 0  497.6305211491849 215.6616104719064 0  496.5903258357701 208.8513523404629 0  495.3628732906988 202.0723419043604 0  493.9490956264813 195.3297270628552 0  492.3500664487791 188.6286280724281 0  490.5670000344809 181.9741336371959 0  488.6012504175981 175.3712970824318 0  486.4543103623226 168.8251325157939 0  484.1278102222298 162.3406109960628 0  481.6235167152198 155.9226567951971 0  478.9433315621651 149.5761436051346 0  476.0892900516498 143.3058908657982 0  473.063559513628 137.1166601437124 0  469.8684376406648 131.0131514433083 0  466.5063507675389 124.9999996907064 0  462.9798520124137 119.0817711822745 0  459.2916193464549 113.2629601339176 0  455.4444535642773 107.5479852733717 0  451.4412761528674 101.9411864767781 0  447.2851270583545 96.44682145403524 0  442.9791624165781 91.06906256805769 0  438.5266521117469 85.81199360630404 0  433.9309773156125 80.67960671046254 0  429.1956279150353 75.67579933888632 0  424.3241998888952 70.80437133373906 0  419.3203925223282 66.06902197812161 0  414.1880056411937 61.47334723289828 0  408.9309366751728 57.0208369601728 0  403.5531778009394 52.71487236176898 0  398.058812796452 48.55872331295853 0  392.4520140187753 44.55554594490843 0  386.7370391799677 40.70838020528396 0  380.9182281475119 37.02014757560744 0  374.9999996718656 33.49364886444181 0  368.9868479340393 30.13156202237255 0  362.8833392380029 26.93644017348339 0  356.6941085456942 23.91070967062674 0  350.4238558420009 21.0566681953261 0  344.0773426899492 18.37648307566465 0  337.6593885328982 15.87218960140942 0  331.1748670549786 13.54568949032341 0  324.6287025315056 11.39874946165088 0  318.0258660010876 9.432999863235466 0  311.3713716017894 7.649933468721599 0  304.6702726190621 6.050904302234756 0  297.9276578269805 4.637126656823085 0  291.148647441857 3.409674127905504 0  284.3383893425031 2.369478825079682 0  277.502055159398 1.517330660648639 0  270.6448362875833 0.853876741662134 0  263.7719400401456 0.3796208889774277 0  256.8885855592052 0.09492324285704967 0  243.1114143979462 0.09492324403817065 0  236.2280598850882 0.3796208931023841 0  229.3551635938215 0.8538767514891958 0  222.4979446968584 1.517330676558146 0  215.6616104703111 2.369478851036291 0  208.8513523382973 3.409674164591252 0  202.0723419066374 4.637126708856528 0  195.3297270659513 6.050904372824903 0  188.628628074828 7.649933550613184 0  181.9741336377093 9.432999965373938 0  175.3712970793675 11.39874958336037 0  168.8251325057572 13.54568964112298 0  162.340610986655 15.87218978129263 0  155.9226567874317 18.37648328793418 0  149.576143602509 21.05666843898663 0  143.3058908718157 23.91070994551046 0  137.1166601505524 26.93644048291054 0  131.0131514451933 30.13156235831508 0  124.9999996848412 33.49364923584736 0  119.0817711715717 37.0201479941652 0  113.2629601211624 40.70838066187849 0  107.5479852622251 44.55554644345162 0  101.9411864693332 48.55872385260452 0  96.44682143286516 52.71487295812284 0  91.06906254351222 57.02083760363669 0  85.81199358272519 61.4733479087879 0  80.67960667988106 66.06902271253972 0  75.67579930062769 70.80437212218331 0  70.80437129287643 75.67580015310926 0  66.06902193673014 80.67960752263491 0  61.47334718684866 85.81199441168215 0  57.02083692524275 91.0690633672404 0  52.71487232786438 96.44682224262129 0  48.55872328070024 101.941187247437 0  44.55554591578033 107.5479860232332 0  40.7083801742321 113.2629608675606 0  37.02014754791168 119.0817718975441 0  33.49364883372994 125.000000381329 0  30.13156199866361 131.0131521097709 0  26.9364401549829 137.1166607985551 0  23.91070965524918 143.3058914868915 0  21.05666818346614 149.576144185037 0  18.37648306853811 155.9226573275967 0  15.8721895918909 162.3406114925245 0  13.54568948170046 168.8251329701392 0  11.39874945301878 175.3712974960928 0  9.432999857087736 181.9741340206533 0  7.649933466342702 188.6286284076045 0  6.050904301250966 195.3297273853278 0  4.637126656808988 202.0723421730917 0  3.409674127767772 208.8513525589684 0  2.369478824521138 215.6616106615248 0  1.517330660909465 222.4979448382452 0  0.8538767414496533 229.355163714981 0  0.3796208887135322 236.2280599646376 0  0.09492324266324204 243.1114144478261 0  0.0949232442452228 256.8885856095658 0  0.3796208935834784 263.7719401236316 0  0.8538767530323526 270.6448364248016 0  1.517330679476544 277.5020553295092 0  2.369478854618649 284.3383895555228 0  3.409674170191892 291.1486476952655 0  4.6371267162381 297.9276581311522 0  6.050904381420935 304.6702729724059 0  7.649933562385399 311.3713719716595 0  9.43299997979841 318.0258664133013 0  11.3987495994252 324.6287029719946 0  13.54568965885832 331.174867545904 0  15.87218979367188 337.6593890464085 0  18.37648329843151 344.0773432384132 0  21.05666844777872 350.423856417535 0  23.91070995156048 356.6941091410045 0  26.93644048988043 362.8833398632205 0  30.13156235982007 368.9868485575877 0  33.49364924138357 375.0000003247478 0  37.0201480006036 380.9182288389023 0  40.70838066758398 386.7370398875706 0  44.55554644477201 392.4520147396792 0  48.55872386086904 398.0588135419111 0  52.71487295981296 403.5531785693063 0  57.02083760525949 408.9309374584583 0  61.47334790862246 414.1880064170849 0  66.06902271205095 419.320393319588 0  70.80437211216579 424.3242006890749 0  75.67580013809859 429.195628692521 0  80.6796075127923 433.930978054209 0  85.81199439754931 438.5266528008431 0  91.06906334717917 442.9791630582355 0  96.44682221438322 447.2851276501571 0  101.9411872243843 451.441276702356 0  107.5479859945825 455.4444540643537 0  113.2629608446994 459.2916198108319 0  119.0817718768376 462.9798524393601 0  125.0000003647644 466.5063511567065 0  131.0131521012763 469.8684379967393 0  137.1166607840049 473.0635598376539 0  143.3058914748804 476.0892903390826 0  149.5761441732679 478.9433318113714 0  155.9226573130112 481.6235169255377 0  162.3406114779862 484.1278104026658 0  168.8251329570439 486.4543105138039 0  175.3712974805475 488.601250542119 0  181.9741340135204 490.5670001408953 0  188.6286284005059 492.3500665318597 0  195.3297273788229 493.9490956972913 0  202.0723421640089 495.3628733414168 0  208.8513525529672 496.5903258712308 0  215.6616106544547 497.6305211744985 0  222.4979448327038 498.4826693384772 0  229.3551637102845 499.1461232581612 0  236.2280599621369 499.6203791111485 0  243.1114144470173 499.9050767573145 0  155.2373389820306 474.8197567317462 0  25.36256300907667 153.9152755065208 0  432.3709625126712 412.6214396304305 0  6.013151705810699 246.637913163471 0  246.6379131630491 493.986848294322 0  338.6995838441862 22.68244767887072 0  477.3175523131281 338.6995838660569 0  493.9868482700757 246.6379131399102 0  246.6201155078769 6.218451882810491 0  417.6179310263282 72.7156044707053 0  102.2232990934413 445.0100869616822 0  63.66330858966404 92.20354579482142 0  391.3105220491464 50.73522820883105 0  72.79295043967942 418.0702734974704 0  448.290574428537 108.25674339002 0  402.4604651193511 440.7462829841712 0  97.55317348421397 59.11376320116034 0  136.7376477664901 33.58246472647134 0  363.3288394375288 465.6947312928271 0  44.0678766556007 381.0860953771871 0  469.6905266180034 142.3890690100806 0  22.68244791668644 338.6995843487432 0  338.699584349159 477.317552078365 0  173.389488083762 18.6681884918202 0  483.4809734778481 179.7121987795732 0  13.50237455842738 306.4709525540879 0  305.9825168523021 487.24416992
[...]
<PointData  Vectors="f_12"> 
<DataArray  type="Float64"  Name="f_12"  NumberOfComponents="3" format="ascii">0.0000000000000000e+00 9.3590990517239148e-01 3.9769770958520551e-02  0.0000000000000000e+00 8.6232378839935542e-01 2.1175937690640769e-02  0.0000000000000000e+00 8.8824501173252290e-01 2.0951350584549822e-01  0.0000000000000000e+00 4.8680173908400387e-01 8.6017040106821981e-03  0.0000000000000000e+00 8.8761526584756423e-01 2.1071760371627810e-01  0.0000000000000000e+00 8.8725945227339664e-01 2.1139674427493607e-01  0.0000000000000000e+00 8.8703701791665823e-01 2.1182142558853467e-01  0.0000000000000000e+00 8.8705214145070621e-01 2.1179220726550588e-01  0.0000000000000000e+00 8.8725741342418796e-01 2.1140019325872206e-01  0.0000000000000000e+00 8.8766218957323062e-01 2.1062742131295722e-01  0.0000000000000000e+00 8.8825366900978819e-01 2.0949724478838289e-01  0.0000000000000000e+00 8.8900628614304722e-01 2.0805739145467941e-01  0.0000000000000000e+00 8.8992266862211755e-01 2.0630169244854477e-01  0.0000000000000000e+00 8.9100758584746764e-01 2.0421916791008715e-01  0.0000000000000000e+00 8.9232719109418446e-01 2.0168027668920871e-01  0.0000000000000000e+00 8.9362324038186458e-01 1.9918235404327636e-01  0.0000000000000000e+00 8.9524687039685535e-01 1.9604162052228888e-01  0.0000000000000000e+00 8.9683281503494106e-01 1.9296354364767704e-01  0.0000000000000000e+00 8.9853663436131093e-01 1.8964486773148889e-01  0.0000000000000000e+00 9.0031502430050558e-01 1.8616821553822963e-01  0.0000000000000000e+00 9.0211869802748412e-01 1.8262619608059649e-01  0.0000000000000000e+00 9.0399947163050376e-01 1.7891155942123843e-01  0.0000000000000000e+00 9.0591772159086381e-01 1.7510289028892417e-01  0.0000000000000000e+00 9.0782026734442822e-01 1.7130473015902065e-01  0.0000000000000000e+00 9.0978111075331836e-01 1.6736667307805242e-01  0.0000000000000000e+00 9.1182873660990504e-01 1.6322592099256100e-01  0.0000000000000000e+00 9.1397172837504637e-01 1.5886177128315998e-01  0.0000000000000000e+00 9.1607959340334022e-01 1.5453542888289468e-01  0.0000000000000000e+00 9.1819182312464609e-01 1.5016080777403551e-01  0.0000000000000000e+00 9.2034382984853647e-01 1.4565791728170843e-01  0.0000000000000000e+00 9.2239865391031728e-01 1.4130700557687420e-01  0.0000000000000000e+00 9.2440523996379820e-01 1.3699946210571140e-01  0.0000000000000000e+00 9.2636740112836224e-01 1.3272613856447835e-01  0.0000000000000000e+00 9.2828132845180689e-01 1.2849274600321817e-01  0.0000000000000000e+00 9.3021841646789660e-01 1.2413219593459374e-01  0.0000000000000000e+00 9.3212638045985940e-01 1.1975522705093818e-01  0.0000000000000000e+00 9.3396812929815809e-01 1.1543900444428808e-01  0.0000000000000000e+00 9.3574691238886987e-01 1.1115413113471381e-01  0.0000000000000000e+00 9.3742514082186346e-01 1.0697155275369215e-01  0.0000000000000000e+00 9.3896979437446981e-01 1.0297295934700762e-01  0.0000000000000000e+00 9.4040446199643912e-01 9.9097748622717571e-02  0.0000000000000000e+00 9.4178453692329711e-01 9.5188166470832711e-02  0.0000000000000000e+00 9.4310111297230781e-01 9.1248858207290062e-02  0.0000000000000000e+00 9.4428624927722982e-01 8.7435732714514172e-02  0.0000000000000000e+00 9.4532774023226540e-01 8.3755809473441606e-02  0.0000000000000000e+00 9.4621867890676403e-01 8.0220580559286395e-02  0.0000000000000000e+00 9.4695259590760639e-01 7.6826795473779810e-02  0.0000000000000000e+00 9.4753571358212962e-01 7.3535052301607076e-02  0.0000000000000000e+00 9.4798151495629701e-01 7.0233653979539803e-02  0.0000000000000000e+00 9.4825870790451650e-01 6.7035923031946526e-02  0.0000000000000000e+00 9.4833281033273442e-01 6.4000302246587482e-02  0.0000000000000000e+00 9.4820395605173480e-01 6.1120352923990685e-02  0.0000000000000000e+00 9.4786214352286813e-01 5.8370183910326633e-02  0.0000000000000000e+00 9.4730021206368675e-01 5.5673598416719983e-02  0.0000000000000000e+00 9.4650507739285539e-01 5.3051488100924069e-02  0.0000000000000000e+00 9.4546041493961464e-01 5.0553777274166954e-02  0.0000000000000000e+00 9.4414695904860058e-01 4.8181120535991058e-02  0.0000000000000000e+00 9.4256103456684248e-01 4.5933522372119971e-02  0.0000000000000000e+00 9.4069182886746694e-01 4.3773608086220196e-02  0.0000000000000000e+00 9.3856720002905258e-01 4.1766512716401187e-02  0.0000000000000000e+00 9.3305749549370187e-01 3.7850610665458639e-02  0.0000000000000000e+00 9.2983202822330524e-01 3.6070741217262253e-02  0.0000000000000000e+00 9.2627745158747399e-01 3.4432020290564261e-02  0.0000000000000000e+00 9.2227696576568108e-01 3.2824976990048389e-02  0.0000000000000000e+00 9.1784837172993528e-01 3.1291877649533846e-02  0.0000000000000000e+00 9.1297353857498931e-01 2.9819597457490233e-02  0.0000000000000000e+00 9.0770542532000864e-01 2.8454658515866114e-02  0.0000000000000000e+00 9.0203584822945482e-01 2.7181953905058821e-02  0.0000000000000000e+00 8.9590583697051629e-01 2.5972451913614567e-02  0.0000000000000000e+00 8.8926631723977045e-01 2.4814214173076946e-02  0.0000000000000000e+00 8.8209205817508196e-01 2.3703177171247741e-02  0.0000000000000000e+00 8.7452127135206204e-01 2.2669887183827470e-02  0.0000000000000000e+00 8.6654092143245798e-01 2.1707926399967943e-02  0.0000000000000000e+00 8.5814854862619316e-01 2.0809562908574282e-02  0.0000000000000000e+00 8.4925598523607937e-01 1.9953219614480315e-02  0.0000000000000000e+00 8.3984776553487606e-01 1.9135370589610561e-02  0.0000000000000000e+00 8.2998995269830278e-01 1.8360605342713134e-02  0.0000000000000000e+00 8.1982155739111517e-01 1.7643035190449904e-02  0.0000000000000000e+00 8.0940336108640865e-01 1.6981523480103150e-02  0.0000000000000000e+00 7.9868672372452287e-01 1.6362690293320426e-02  0.0000000000000000e+00 7.8753346766237753e-01 1.5770963592938364e-02  0.0000000000000000e+00 7.7605325407945425e-01 1.5211838690161293e-02  0.0000000000000000e+00 7.6425478768689992e-01 1.4681939088110081e-02  0.0000000000000000e+00 7.5240353918268288e-01 1.4193213845643532e-02  0.0000000000000000e+00 7.4055041416794842e-01 1.3744581906840348e-02  0.0000000000000000e+00 7.2869675305201009e-01 1.3330422164317417e-02  0.0000000000000000e+00 7.1674979478375178e-01 1.2941866371796442e-02  0.0000000000000000e+00 7.0463961010363096e-01 1.2572422012072924e-02  0.0000000000000000e+00 6.9242086705191075e-01 1.2220355753604138e-02  0.0000000000000000e+00 6.8023293738315271e-01 1.1891321273916809e-02  0.0000000000000000e+00 6.6827766347699691e-01 1.1589321878294099e-02  0.0000000000000000e+00 6.5666050938843845e-01 1.1314740891882476e-02  0.0000000000000000e+00 6.4532184583143948e-01 1.1063226162418506e-02  0.0000000000000000e+00 6.3431041841397340e-01 1.0832026031004515e-02  0.0000000000000000e+00 6.2359535311389314e-01 1.0617839809780861e-02  0.0000000000000000e+00 6.1284510801177405e-01 1.0410709771812524e-02  0.0000000000000000e+00 6.0227067498518005e-01 1.0215460571814144e-02  0.0000000000000000e+00 5.9220020728473344e-01 1.0038718406599532e-02  0.0000000000000000e+00 5.8236045746545950e-01 9.8726935686039193e-03  0.0000000000000000e+00 5.7289498570292674e-01 9.7198598050383528e-03  0.0000000000000000e+00 5.6425707905897970e-01 9.5874951234304374e-03  0.0000000000000000e+00 5.5607034549849466e-01 9.4683198587697595e-03  0.0000000000000000e+00 5.4840163979266532e-01 9.3601029108375568e-03  0.0000000000000000e+00 5.4114059150834426e-01 9.2609099585212878e-03  0.0000000000000000e+00 5.3430903092246107e-01 9.1700185619214541e-03  0.0000000000000000e+00 5.2785391678232430e-01 9.0862395104059877e-03  0.0000000000000000e+00 5.2182327758472591e-01 9.0097342452115110e-03  0.0000000000000000e+00 5.1624819823217183e-01 8.9405791517352777e-03  0.0000000000000000e+00 5.1103685040733604e-01 8.8770640714273610e-03  0.0000000000000000e+00 5.0621682029294768e-01 8.8189708129494393e-03  0.0000000000000000e+00 5.0192040060742693e-01 8.7683043739240994e-03  0.0000000000000000e+00 4.9817142361244376e-01 8.7253040567148912e-03  0.0000000000000000e+00 4.9498272201396853e-01 8.6902268910905422e-03  0.0000000000000000e+00 4.9216713924561473e-01 8.6595473913154714e-03  0.0000000000000000e+00 4.8990346709882954e-01 8.6349749152246757e-03  0.0000000000000000e+00 4.8808117193922412e-01 8.6151007097514196e-03  0.0000000000000000e+00 4.8622627298688692e-01 8.5966219294563457e-03  0.0000000000000000e+00 4.8499386048188509e-01 8.5809730331972284e-03  0.0000000000000000e+00 4.8557328293808427e-01 8.5889900381369046e-03  0.0000000000000000e+00 4.8607698075578426e-01 8.5942827807994893e-03  0.0000000000000000e+00 4.8695646863112418e-01 8.6033933187841857e-03  0.0000000000000000e+00 4.8836532165219121e-01 8.6188122382046279e-03  0.0000000000000000e+00 4.9028759360778651e-01 8.6399578148147367e-03  0.0000000000000000e+00 4.9253285943371650e-01 8.6644414086381287e-03  0.0000000000000000e+00 4.9524576703935741e-01 8.6944696149593454e-03  0.0000000000000000e+00 4.9783993842227442e-01 8.7219819565250330e-03  0.0000000000000000e+00 5.0164577412598832e-01 8.7662803825915465e-03  0.0000000000000000e+00 5.0559979483094253e-01 8.8127244863877522e-03  0.0000000000000000e+00 5.0988729866866955e-01 8.8639517230741493e-03  0.0000000000000000e+00 5.1431314762621094e-01 8.9163536396066924e-03  0.0000000000000000e+00 5.1915857487856165e-01 8.9754221101646971e-03  0.0000000000000000e+00 5.2450399731900033e-01 9.0430133510025507e-03  0.0000000000000000e+00 5.2998080386590285e-01 9.1129896471122337e-03  0.0000000000000000e+00 5.3569041591106725e-01 9.1868147723775835e-03  0.0000000000000000e+00 5.4163582947999944e-01 9.2653967400354049e-03  0.0000000000000000e+00 5.4785872301268201e-01 9.3501208625453892e-03  0.0000000000000000e+00 5.5443812332677855e-01 9.4426875593134011e-03  0.0000000000000000e+00 5.6135440674428427e-01 9.5429661221134929e-03  0.0000000000000000e+00 5.6850767626852583e-01 9.6497507812263773e-03  0.0000000000000000e+00 5.7595810004370895e-01 9.7651901308516351e-03  0.0000000000000000e+00 5.8374268099730886e-01 9.8906125278138638e-03  0.0000000000000000e+00 5.9181270185541479e-01 1.0025866457734458e-02  0.0000000000000000e+00 6.0012665847163182e-01 1.0170702620153385e-02  0.0000000000000000e+00 6.0859128232799042e-01 1.0323757124184235e-02  0.0000000000000000e+00 6.1715309518326489e-01 1.0484036512092206e-02  0.0000000000000000e+00 6.2574947870616837e-01 1.0650523405287278e-02  0.0000000000000000e+00 6.3436498284772413e-01 1.0823085947282348e-02  0.0000000000000000e+00 6.4298338848280190e-01 1.1001632405695459e-02  0.0000000000000000e+00 6.5169873537843326e-01 1.1189724868768292e-02  0.0000000000000000e+00 6.6057508065161685e-01 1.1390977904006599e-02  0.0000000000000000e+00 6.6973202250065322e-01 1.1609254317630366e-02  0.0000000000000000e+00 6.7906539743320815e-01 1.1843657580956469e-02  0.0000000000000000e+00 6.8852325570324879e-01 1.2093935529079884e-02  0.0000000000000000e+00 6.9799270304604077e-01 1.2356837877870020e-02  0.0000000000000000e+00 7.0738479820835887e-01 1.2630483396365317e-02  0.0000000000000000e+00 7.1661565679260020e-01 1.2912735583445668e-02  0.0000000000000000e+00 7.2586917339946466e-01 1.3210049029745806e-02  0.0000000000000000e+00 7.3500147103424274e-01 1.3518896673833998e-02  0.0000000000000000e+00 7.4397706250858997e-01 1.3839979002658346e-02  0.0000000000000000e+00 7.5310796667353774e-01 1.4187194172403403e-02  0.0000000000000000e+00 7.6238090771605105e-01 1.4565878915611837e-02  0.0000000000000000e+00 7.7166861073487392e-01 1.4972198472884963e-02  0.0000000000000000e+00 7.8065141501880020e-01 1.5389710642343152e-02  0.0000000000000000e+00 7.8971168730688479e-01 1.5841582757319329e-02  0.0000000000000000e+00 7.9837902292127116e-01 1.6300608632828773e-02  0.0000000000000000e+00 8.0686939488376497e-01 1.6779986854716621e-02  0.0000000000000000e+00 8.1513686408859753e-01 1.7285898900963048e-02  0.0000000000000000e+00 8.2342565302119497e-01 1.7833923673142234e-02  0.0000000000000000e+00 8.3168744315422893e-01 1.8431129684850438e-02  0.0000000000000000e+00 8.3978025291400937e-01 1.9070213492353664e-02  0.0000000000000000e+00 8.4760026436047775e-01 1.9741174239945782e-02  0.0000000000000000e+00 8.5510828501110403e-01 2.0440984999861696e-02  0.0000000000000000e+00 8.6929614664190658e-01 2.1954979784109683e-02  0.0000000000000000e+00 8.7606444850219811e-01 2.2794263871156541e-02  0.0000000000000000e+00 8.8263116157642973e-01 2.3705323232540883e-02  0.0000000000000000e+00 8.8893865324569021e-01 2.4679259440558418e-02  0.0000000000000000e+00 8.9491013462783742e-01 2.5705939951240500e-02  0.0000000000000000e+00 9.0052223450181434e-01 2.6781360873687838e-02  0.0000000000000000e+00 9.0580338046009923e-01 2.7918027994209227e-02  0.0000000000000000e+00 9.1080634777931591e-01 2.9141176017484088e-02  0.0000000000000000e+00 9.1554218398293474e-01 3.0469203381615503e-02  0.0000000000000000e+00 9.1997245754317647e-01 3.1898671803708867e-02  0.0000000000000000e+00 9.2404621505898510e-01 3.3407347291705289e-02  0.0000000000000000e+00 9.2775799853723151e-01 3.4981595608671819e-02  0.0000000000000000e+00 9.3113070302392731e-01 3.6648087799712556e-02  0.0000000000000000e+00 9.3421050130016492e-01 3.8452364884011138e-02  0.0000000000000000e+00 9.3698400266948256e-01 4.0392858638066444e-02  0.0000000000000000e+00 9.3943977697383785e-01 4.2465283103974780e-02  0.0000000000000000e+00 9.4157462204740738e-01 4.4638911050110849e-02  0.0000000000000000e+00 9.4339301968713163e-01 4.6908232041610841e-02  0.0000000000000000e+00 9.4491729477413544e-01 4.9351405309974325e-02  0.0000000000000000e+00 9.4615738233155056e-01 5.1972892072308326e-02  0.0000000000000000e+00 9.4710923947349857e-01 5.4771170215179042e-02  0.0000000000000000e+00 9.4778585230685175e-01 5.7689955426463303e-02  0.0000000000000000e+00 9.4820312711137344e-01 6.0731630251437338e-02  0.0000000000000000e+00 9.4835783160393539e-01 6.3968063202210157e-02  0.0000000000000000e+00 9.4824950829809862e-01 6.7432232878364709e-02  0.0000000000000000e+00 9.4789056608523614e-01 7.1104301743296183e-02  0.0000000000000000e+00 9.4731291130649731e-01 7.4923606553322877e-02  0.0000000000000000e+00 9.4653240390499671e-01 7.8849327724034912e-02  0.0000000000000000e+00 9.4552850435278013e-01 8.2990051677115290e-02  0.0000000000000000e+00 9.4430546287753581e-01 8.7354638601099030e-02  0.0000000000000000e+00 9.4287224038609907e-01 9.1936946969097724e-02  0.0000000000000000e+00 9.4126660053013045e-01 9.6665408742840589e-02  0.0000000000000000e+00 9.3952488807411461e-01 1.0147671003709277e-01  0.0000000000000000e+00 9.3762586739700338e-01 1.0643849889116215e-01  0.0000000000000000e+00 9.3554134070658035e-01 1.1163057919267540e-01  0.0000000000000000e+00 9.3331537182916680e-01 1.1696216128314789e-01  0.0000000000000000e+00 9.3097452746013754e-01 1.2239312684315172e-01  0.0000000000000000e+00 9.2853734080720962e-01 1.2790651584495566e-01  0.0000000000000000e+00 9.2607015325977005e-01 1.3336464156656883e-01  0.0000000000000000e+00 9.2353857619376234e-01 1.3885055036515698e-01  0.0000000000000000e+00 9.2090989011549373e-01 1.4444712809861329e-01  0.0000000000000000e+00 9.1822024093274746e-01 1.5008625337158929e-01  0.0000000000000000e+00 9.1548126893409976e-01 1.5575286713422262e-01  0.0000000000000000e+00 9.1282633478561359e-01 1.6118739767183771e-01  0.0000000000000000e+00 9.1020269011735044e-01 1.6650531375093378e-01  0.0000000000000000e+00 9.0768160901811712e-01 1.7157168831200220e-01  0.0000000000000000e+00 9.0527083985874135e-01 1.7638164733573047e-01  0.0000000000000000e+00 9.0294121599855803e-01 1.8099877123684130e-01  0.0000000000000000e+00 9.0070974752647892e-01 1.8539006271279995e-01  0.0000000000000000e+00 8.9856036465040090e-01 1.8959436335416532e-01  0.0000000000000000e+00 8.9649016519659364e-01 1.9362546502713870e-01  0.0000000000000000e+00 8.9460567620065357e-01 1.9727874389444497e-01  0.0000000000000000e+00 8.9292199327501998e-01 2.0053041255098691e-01  0.0000000000000000e+00 8.9143250169993626e-01 2.0339889384098317e-01  0.0000000000000000e+00 8.9016152306308494e-01 2.0584141414916030e-01  0.0000000000000000e+00 8.8913070204135491e-01 2.0781773701629752e-01  0.0000000000000000e+00 9.1724579928516259e-01 1.5210625924208540e-01  0.0000000000000000e+00 7.3914972448697447e-01 1.3671415676098654e-02  0.0000000000000000e+00 9.2969456221382751e-01 1.2531690376033325e-01  0.0000000000000000e+00 8.5931303551000160e-01 2.0869709205020858e-02  0.0000000000000000e+00 8.8946123828959101e-01 2.0718122395058192e-01  0.0000000000000000e+00 5.4690578092585929e-01 9.3464078071440367e-03  0.0000000000000000e+00 9.4732248674485597e-01 7.4799797292419923e-02  0.0000000000000000e+00 9.3442449674830952e-01 3.8702902195844609e-02  0.0000000000000000e+00 4.8913745226685112e-01 8.6365076836718898e-03  0.0000000000000000e+00 6.8729254591417388e-01 1.2084080097154875e-02  0.0000000000000000e+00 9.3879241362402688e-01 1.0341501382022278e-01  0.0000000000000000e+00 6.4040402865599466e-01 1.0954317063011728e-02  0.0000000000000000e+00 6.2915149077917853e-01 1.0732857097815870e-02  0.0000000000000000e+00 9.4696018340622035e-01 7.6800692284572605e-02  0.0000000000000000e+00 7.7049277327831978e-01 1.4959856943323606e-02  0.0000000000000000e+00 9.1751294953295048e-01 1.5156691300301514e-01  0.0000000000000000e+00 5.8144106976816778e-01 9.8600409149827341e-03  0.0000000000000000e+00 5.3496195541018710e-01 9.1845958134498598e-03  0.0000000000000000e+00 9.0378480429642338e-01 1.7933321015186804e-01  0.0000000000000000e+00 9.4670683968977842e-01 5.3490078804491172e-02  0.0000000000000000e+00 8.3478815340925239e-01 1.8729904237641416e-02  0.0000000000000000e+00 9.3274041437331445e-01 3.7552501175304016e-02  0.0000000000000000e+00 8.9669338327181602e-01 1.9323106848370530e-01  0.0000000000000000e+00 5.0671781865905130e-01 8.8349187700225637e-03  0.0000000000000000e+00 8.8484285173749677e-01 2.4114710587642006e-02  0.0000000000000000e+00 9.1344188063268694e-01 2.9869098859365156e-02  0.0000000000000000e+00 8.9021234751690403e-01 2.0574172970178162e-01  0.0000000000000000e+00 9.0239903509160191e-01 1.8206377400032381e-01  0.0000000000000000e+00 7.9499453185232083e-01 1.6125707452422262e-02  0.0000000000000000e+00 5.1114765566332365e-01 8.8867031839990531e-03  0.0000000000000000e+00 9.4755805769901891e-01 5.6785385907958452e-02  0.0000000000000000e+00 9.3962419472971570e-01 1.0121747376504733e-01  0.0000000000000000e+00 4.9179543599236625e-01 8.6639039191931770e-03  0.0000000000000000e+00 9.0985647591113106e-01 2.8990120804169024e-02  0.0000000000000000e+00 8.9228758477575221e-01 2.5250133559564236e-02  0.0000000000000000e+00 8.8792709488843569e-01 2.1011744134681040e-01  0.0000000000000000e+00 5.8919411385028864e-01 9.9930459753194648e-03  0.0000000000000000e+00 6.9467198091663329e-01 1.2269711117541281e-02  0.0000000000000000e+00 8.9443279692009026e-01 1.9760914033940241e-01  0.0000000000000000e+00 9.2767331256882479e-01 1.2982995508900044e-01  0.0000000000000000e+00 8.2932934799939007e-01 1.8264142456749587e-02  0.0000000000000000e+00 4.9643780856490977e-01 8.7160361733425572e-03  0.0000000000000000e+00 9.4344702219655807e-01 4.7139930606731439e-02  0.0000000000000000e+00 9.1156601825226824e-01 1.6375293977255057e-01  0.0000000000000000e+00 9.4832480864433932e-01 6.5174015668974461e-02  0.0000000000000000e+00 4.8808472683572846e-01 8.6233621619323519e-03  0.0000000000000000e+00 5.2711624293973947e-01 9.0839102498644370e-03  0.0000000000000000e+00 9.2409044066020685e-01 3.3521788428911438e-02  0.0000000000000000e+00 7.2306038501032932e-01 1.3148191929524081e-02  0.0000000000000000e+00 9.0941302284100234e-01 1.6809155840016424e-01  0.0000000000000000e+00 9.3523089465260245e-01 1.1240488686408476e-01  0.0000000000000000e+00 9.4833454936436612e-01 6.5719219319817460e-02  0.0000000000000000e+00 5.6007397761198929e-01 9.5314712118582615e-03  0.0000000000000000e+00 9.4263111567698310e-01 4.5896658448055322e-02  0.0000000000000000e+00 7.6815508779600228e-01 1.4823073377020664e-02  0.0000000000000000e+00 9.4385479133283390e-01 8.8849516320348765e-02  0.0000000000