<?xml version="1.0"?>
<VTKFile type="UnstructuredGrid"  version="0.1"  >
<UnstructuredGrid>
<Piece  NumberOfPoints="4940" NumberOfCells="9650">
<Points>
<DataArray  type="Float64"  NumberOfComponents="3"  format="ascii">500 250 0  0 250 0  250 500 0  250 0 0  256.8885856082646 499.9050767557906 0  263.7719401218049 499.6203791065173 0  270.6448364229772 499.1461232471188 0  277.5020553257866 498.4826693209355 0  284.3383895508592 497.6305211460281 0  291.1486476865662 496.5903258312597 0  297.9276581259182 495.3628732847843 0  304.6702729675493 493.9490956196674 0  311.3713719748657 492.3500664368026 0  318.0258664141369 490.5670000199653 0  324.6287029687753 488.6012504015818 0  331.1748675330201 486.4543103455647 0  337.6593890460416 484.1278102064655 0  344.0773432429536 481.6235166997244 0  350.4238564271474 478.9433315480048 0  356.694109139292 476.0892900492477 0  362.88333985546 473.0635595140469 0  368.9868485575419 469.8684376402048 0  375.0000003153078 466.5063507640667 0  380.9182288257928 462.9798520074548 0  386.7370398729688 459.2916193419558 0  392.4520147244077 455.444453565817 0  398.0588135356345 451.4412761437442 0  403.5531785622926 447.285127045646 0  408.9309374414144 442.9791624087773 0  414.1880064015299 438.5266521049243 0  419.3203932989752 433.9309773069245 0  424.324200661095 429.1956279150535 0  429.1956286596235 424.3241998957182 0  433.9309780058756 419.3203925397119 0  438.5266527445345 414.1880056671062 0  442.9791630130591 408.9309367076756 0  447.2851276060475 403.5531778422888 0  451.4412766621026 398.0588128303826 0  455.4444540361634 392.4520140460735 0  459.2916197786263 386.7370392045948 0  462.9798524073514 380.9182281752347 0  466.5063511234856 374.9999996927758 0  469.8684379657123 368.9868479560565 0  473.0635598144817 362.8833392617846 0  476.0892903190255 356.6941085676214 0  478.9433317963513 350.4238558609745 0  481.6235169154735 344.0773427117675 0  484.12781039012 337.6593885555221 0  486.4543105028062 331.1748670749914 0  488.601250531677 324.6287025528375 0  490.5670001317469 318.0258660188321 0  492.3500665291326 311.3713716102628 0  493.949095695951 304.6702726271575 0  495.3628733416623 297.9276578347343 0  496.5903258712341 291.1486474470129 0  497.6305211749058 284.3383893426084 0  498.4826693388848 277.502055163614 0  499.1461232580606 270.6448362909296 0  499.6203791109319 263.7719400417897 0  499.9050767571306 256.8885855596534 0  499.9050767559877 243.1114143988867 0  499.6203791069493 236.2280598860241 0  499.1461232485393 229.3551635941651 0  498.4826693235677 222.4979446979962 0  497.6305211491849 215.6616104719064 0  496.5903258357701 208.8513523404629 0  495.3628732906988 202.0723419043604 0  493.9490956264813 195.3297270628552 0  492.3500664487791 188.6286280724281 0  490.5670000344809 181.9741336371959 0  488.6012504175981 175.3712970824318 0  486.4543103623226 168.8251325157939 0  484.1278102222298 162.3406109960628 0  481.6235167152198 155.9226567951971 0  478.9433315621651 149.5761436051346 0  476.0892900516498 143.3058908657982 0  473.063559513628 137.1166601437124 0  469.8684376406648 131.0131514433083 0  466.5063507675389 124.9999996907064 0  462.9798520124137 119.0817711822745 0  459.2916193464549 113.2629601339176 0  455.4444535642773 107.5479852733717 0  451.4412761528674 101.9411864767781 0  447.2851270583545 96.44682145403524 0  442.9791624165781 91.06906256805769 0  438.5266521117469 85.81199360630404 0  433.9309773156125 80.67960671046254 0  429.1956279150353 75.67579933888632 0  424.3241998888952 70.80437133373906 0  419.3203925223282 66.06902197812161 0  414.1880056411937 61.47334723289828 0  408.9309366751728 57.0208369601728 0  403.5531778009394 52.71487236176898 0  398.058812796452 48.55872331295853 0  392.4520140187753 44.55554594490843 0  386.7370391799677 40.70838020528396 0  380.9182281475119 37.02014757560744 0  374.9999996718656 33.49364886444181 0  368.9868479340393 30.13156202237255 0  362.8833392380029 26.93644017348339 0  356.6941085456942 23.91070967062674 0  350.4238558420009 21.0566681953261 0  344.0773426899492 18.37648307566465 0  337.6593885328982 15.87218960140942 0  331.1748670549786 13.54568949032341 0  324.6287025315056 11.39874946165088 0  318.0258660010876 9.432999863235466 0  311.3713716017894 7.649933468721599 0  304.6702726190621 6.050904302234756 0  297.9276578269805 4.637126656823085 0  291.148647441857 3.409674127905504 0  284.3383893425031 2.369478825079682 0  277.502055159398 1.517330660648639 0  270.6448362875833 0.853876741662134 0  263.7719400401456 0.3796208889774277 0  256.8885855592052 0.09492324285704967 0  243.1114143979462 0.09492324403817065 0  236.2280598850882 0.3796208931023841 0  229.3551635938215 0.8538767514891958 0  222.4979446968584 1.517330676558146 0  215.6616104703111 2.369478851036291 0  208.8513523382973 3.409674164591252 0  202.0723419066374 4.637126708856528 0  195.3297270659513 6.050904372824903 0  188.628628074828 7.649933550613184 0  181.9741336377093 9.432999965373938 0  175.3712970793675 11.39874958336037 0  168.8251325057572 13.54568964112298 0  162.340610986655 15.87218978129263 0  155.9226567874317 18.37648328793418 0  149.576143602509 21.05666843898663 0  143.3058908718157 23.91070994551046 0  137.1166601505524 26.93644048291054 0  131.0131514451933 30.13156235831508 0  124.9999996848412 33.49364923584736 0  119.0817711715717 37.0201479941652 0  113.2629601211624 40.70838066187849 0  107.5479852622251 44.55554644345162 0  101.9411864693332 48.55872385260452 0  96.44682143286516 52.71487295812284 0  91.06906254351222 57.02083760363669 0  85.81199358272519 61.4733479087879 0  80.67960667988106 66.06902271253972 0  75.67579930062769 70.80437212218331 0  70.80437129287643 75.67580015310926 0  66.06902193673014 80.67960752263491 0  61.47334718684866 85.81199441168215 0  57.02083692524275 91.0690633672404 0  52.71487232786438 96.44682224262129 0  48.55872328070024 101.941187247437 0  44.55554591578033 107.5479860232332 0  40.7083801742321 113.2629608675606 0  37.02014754791168 119.0817718975441 0  33.49364883372994 125.000000381329 0  30.13156199866361 131.0131521097709 0  26.9364401549829 137.1166607985551 0  23.91070965524918 143.3058914868915 0  21.05666818346614 149.576144185037 0  18.37648306853811 155.9226573275967 0  15.8721895918909 162.3406114925245 0  13.54568948170046 168.8251329701392 0  11.39874945301878 175.3712974960928 0  9.432999857087736 181.9741340206533 0  7.649933466342702 188.6286284076045 0  6.050904301250966 195.3297273853278 0  4.637126656808988 202.0723421730917 0  3.409674127767772 208.8513525589684 0  2.369478824521138 215.6616106615248 0  1.517330660909465 222.4979448382452 0  0.8538767414496533 229.355163714981 0  0.3796208887135322 236.2280599646376 0  0.09492324266324204 243.1114144478261 0  0.0949232442452228 256.8885856095658 0  0.3796208935834784 263.7719401236316 0  0.8538767530323526 270.6448364248016 0  1.517330679476544 277.5020553295092 0  2.369478854618649 284.3383895555228 0  3.409674170191892 291.1486476952655 0  4.6371267162381 297.9276581311522 0  6.050904381420935 304.6702729724059 0  7.649933562385399 311.3713719716595 0  9.43299997979841 318.0258664133013 0  11.3987495994252 324.6287029719946 0  13.54568965885832 331.174867545904 0  15.87218979367188 337.6593890464085 0  18.37648329843151 344.0773432384132 0  21.05666844777872 350.423856417535 0  23.91070995156048 356.6941091410045 0  26.93644048988043 362.8833398632205 0  30.13156235982007 368.9868485575877 0  33.49364924138357 375.0000003247478 0  37.0201480006036 380.9182288389023 0  40.70838066758398 386.7370398875706 0  44.55554644477201 392.4520147396792 0  48.55872386086904 398.0588135419111 0  52.71487295981296 403.5531785693063 0  57.02083760525949 408.9309374584583 0  61.47334790862246 414.1880064170849 0  66.06902271205095 419.320393319588 0  70.80437211216579 424.3242006890749 0  75.67580013809859 429.195628692521 0  80.6796075127923 433.930978054209 0  85.81199439754931 438.5266528008431 0  91.06906334717917 442.9791630582355 0  96.44682221438322 447.2851276501571 0  101.9411872243843 451.441276702356 0  107.5479859945825 455.4444540643537 0  113.2629608446994 459.2916198108319 0  119.0817718768376 462.9798524393601 0  125.0000003647644 466.5063511567065 0  131.0131521012763 469.8684379967393 0  137.1166607840049 473.0635598376539 0  143.3058914748804 476.0892903390826 0  149.5761441732679 478.9433318113714 0  155.9226573130112 481.6235169255377 0  162.3406114779862 484.1278104026658 0  168.8251329570439 486.4543105138039 0  175.3712974805475 488.601250542119 0  181.9741340135204 490.5670001408953 0  188.6286284005059 492.3500665318597 0  195.3297273788229 493.9490956972913 0  202.0723421640089 495.3628733414168 0  208.8513525529672 496.5903258712308 0  215.6616106544547 497.6305211744985 0  222.4979448327038 498.4826693384772 0  229.3551637102845 499.1461232581612 0  236.2280599621369 499.6203791111485 0  243.1114144470173 499.9050767573145 0  155.2373389820306 474.8197567317462 0  25.36256300907667 153.9152755065208 0  432.3709625126712 412.6214396304305 0  6.013151705810699 246.637913163471 0  246.6379131630491 493.986848294322 0  338.6995838441862 22.68244767887072 0  477.3175523131281 338.6995838660569 0  493.9868482700757 246.6379131399102 0  246.6201155078769 6.218451882810491 0  417.6179310263282 72.7156044707053 0  102.2232990934413 445.0100869616822 0  63.66330858966404 92.20354579482142 0  391.3105220491464 50.73522820883105 0  72.79295043967942 418.0702734974704 0  448.290574428537 108.25674339002 0  402.4604651193511 440.7462829841712 0  97.55317348421397 59.11376320116034 0  136.7376477664901 33.58246472647134 0  363.3288394375288 465.6947312928271 0  44.0678766556007 381.0860953771871 0  469.6905266180034 142.3890690100806 0  22.68244791668644 338.6995843487432 0  338.699584349159 477.317552078365 0  173.389488083762 18.6681884918202 0  483.4809734778481 179.7121987795732 0  13.50237455842738 306.4709525540879 0  305.9825168523021 487.24416992
[...]
<PointData  Vectors="f_12"> 
<DataArray  type="Float64"  Name="f_12"  NumberOfComponents="3" format="ascii">0.0000000000000000e+00 3.0928511379935141e-02 4.9327266429041561e-02  0.0000000000000000e+00 1.7367562396304048e-02 1.4242981581792016e-01  0.0000000000000000e+00 2.0317777228642717e-01 8.2451145452287680e-03  0.0000000000000000e+00 7.1784371129000157e-02 9.0003488715851920e-01  0.0000000000000000e+00 2.0448950908025065e-01 8.2259223115949374e-03  0.0000000000000000e+00 2.0519446433697613e-01 8.2160843303246116e-03  0.0000000000000000e+00 2.0566601055534717e-01 8.2088656049597204e-03  0.0000000000000000e+00 2.0562109001552178e-01 8.2105453387331957e-03  0.0000000000000000e+00 2.0518711919364727e-01 8.2169454609808245e-03  0.0000000000000000e+00 2.0434236877135703e-01 8.2286459077366460e-03  0.0000000000000000e+00 2.0311945395247960e-01 8.2459605163040205e-03  0.0000000000000000e+00 2.0157981843603900e-01 8.2684662899089410e-03  0.0000000000000000e+00 1.9970838285821929e-01 8.2965169711893237e-03  0.0000000000000000e+00 1.9749473652392618e-01 8.3305902737343552e-03  0.0000000000000000e+00 1.9475421774093093e-01 8.3754858005916141e-03  0.0000000000000000e+00 1.9217904812942360e-01 8.4179560935191255e-03  0.0000000000000000e+00 1.8877649052084319e-01 8.4783621793346597e-03  0.0000000000000000e+00 1.8553172233501880e-01 8.5397421386526236e-03  0.0000000000000000e+00 1.8200743428505461e-01 8.6110451707486022e-03  0.0000000000000000e+00 1.7830347333924354e-01 8.6887327860691397e-03  0.0000000000000000e+00 1.7451240029586754e-01 8.7731530764060314e-03  0.0000000000000000e+00 1.7047702816572680e-01 8.8740537556571235e-03  0.0000000000000000e+00 1.6632048444395470e-01 8.9863300522482533e-03  0.0000000000000000e+00 1.6221291741005378e-01 9.1036110502506831e-03  0.0000000000000000e+00 1.5796070362639300e-01 9.2347957804370835e-03  0.0000000000000000e+00 1.5350997538128153e-01 9.3840435115945704e-03  0.0000000000000000e+00 1.4883903050158240e-01 9.5524085410887190e-03  0.0000000000000000e+00 1.4429482165668547e-01 9.7293160306040089e-03  0.0000000000000000e+00 1.3972483402466149e-01 9.9229949165415120e-03  0.0000000000000000e+00 1.3498182382129223e-01 1.0142747110136763e-02  0.0000000000000000e+00 1.3040748000855795e-01 1.0377004132857276e-02  0.0000000000000000e+00 1.2583708831820226e-01 1.0635766610077174e-02  0.0000000000000000e+00 1.2128839755563244e-01 1.0920871935259445e-02  0.0000000000000000e+00 1.1681245927818741e-01 1.1227737595044673e-02  0.0000000000000000e+00 1.1222746103188025e-01 1.1574844919401908e-02  0.0000000000000000e+00 1.0770125679641836e-01 1.1954189544037028e-02  0.0000000000000000e+00 1.0330342786674832e-01 1.2357887333805592e-02  0.0000000000000000e+00 9.8934778186654151e-02 1.2806766556870285e-02  0.0000000000000000e+00 9.4642146823640139e-02 1.3306413185559040e-02  0.0000000000000000e+00 9.0532768473415640e-02 1.3842431703836066e-02  0.0000000000000000e+00 8.6575653522605864e-02 1.4420144289835415e-02  0.0000000000000000e+00 8.2625865733361087e-02 1.5066149994558093e-02  0.0000000000000000e+00 7.8698421817254144e-02 1.5782584380622459e-02  0.0000000000000000e+00 7.4947687220798018e-02 1.6558114935002140e-02  0.0000000000000000e+00 7.1336090947324168e-02 1.7407822946767196e-02  0.0000000000000000e+00 6.7866371177258328e-02 1.8334462397425640e-02  0.0000000000000000e+00 6.4539902083454212e-02 1.9344789949133669e-02  0.0000000000000000e+00 6.1353025033471169e-02 2.0450341871680936e-02  0.0000000000000000e+00 5.8206818911946366e-02 2.1686135795286689e-02  0.0000000000000000e+00 5.5209894114532990e-02 2.3026457215495191e-02  0.0000000000000000e+00 5.2387387968812406e-02 2.4486557676965632e-02  0.0000000000000000e+00 4.9705603545745825e-02 2.6075230737775568e-02  0.0000000000000000e+00 4.7161910008212141e-02 2.7816700206783521e-02  0.0000000000000000e+00 4.4699560129012210e-02 2.9747546885348818e-02  0.0000000000000000e+00 4.2352216226399168e-02 3.1858462388100889e-02  0.0000000000000000e+00 4.0153973278178233e-02 3.4150660141687987e-02  0.0000000000000000e+00 3.8078889471798556e-02 3.6656316648317373e-02  0.0000000000000000e+00 3.6133500203538428e-02 3.9398619470780528e-02  0.0000000000000000e+00 3.4273849512250924e-02 4.2376487999779083e-02  0.0000000000000000e+00 3.2564048497562871e-02 4.5554570184355089e-02  0.0000000000000000e+00 2.9349684357888151e-02 5.3183513162527507e-02  0.0000000000000000e+00 2.7921489053329522e-02 5.7434951753527461e-02  0.0000000000000000e+00 2.6617914550777982e-02 6.2017068430611784e-02  0.0000000000000000e+00 2.5355449465011989e-02 6.7073553615951617e-02  0.0000000000000000e+00 2.4193224856863347e-02 7.2607608700700904e-02  0.0000000000000000e+00 2.3095716566538013e-02 7.8607048266801247e-02  0.0000000000000000e+00 2.2105757069389009e-02 8.5103731315370773e-02  0.0000000000000000e+00 2.1192629344150966e-02 9.2119671794450922e-02  0.0000000000000000e+00 2.0350343266428518e-02 9.9744990829138222e-02  0.0000000000000000e+00 1.9575366745391641e-02 1.0802694546380723e-01  0.0000000000000000e+00 1.8859135065067159e-02 1.1701241615556376e-01  0.0000000000000000e+00 1.8225141611114874e-02 1.2664366099710492e-01  0.0000000000000000e+00 1.7655357236268793e-02 1.3700089863149104e-01  0.0000000000000000e+00 1.7150758772921382e-02 1.4814450277310964e-01  0.0000000000000000e+00 1.6701704978409705e-02 1.6016673289972472e-01  0.0000000000000000e+00 1.6312598633627860e-02 1.7309353107599601e-01  0.0000000000000000e+00 1.5983116249779973e-02 1.8690469126901826e-01  0.0000000000000000e+00 1.5718712804531482e-02 2.0156589664354357e-01  0.0000000000000000e+00 1.5517874014316478e-02 2.1711842269252682e-01  0.0000000000000000e+00 1.5377924956076003e-02 2.3366977171148567e-01  0.0000000000000000e+00 1.5294631586992329e-02 2.5138284540229322e-01  0.0000000000000000e+00 1.5278755277048797e-02 2.7007282297467766e-01  0.0000000000000000e+00 1.5330069022844575e-02 2.8980520167419216e-01  0.0000000000000000e+00 1.5452462636811697e-02 3.1031719808593639e-01  0.0000000000000000e+00 1.5650319526840404e-02 3.3168029427639567e-01  0.0000000000000000e+00 1.5928168105626982e-02 3.5393632330205949e-01  0.0000000000000000e+00 1.6290576763728113e-02 3.7717096311957993e-01  0.0000000000000000e+00 1.6748959023179577e-02 4.0139250076474742e-01  0.0000000000000000e+00 1.7306547192492121e-02 4.2641692884652077e-01  0.0000000000000000e+00 1.7977175749764419e-02 4.5202876618373672e-01  0.0000000000000000e+00 1.8761785957571501e-02 4.7792112361133737e-01  0.0000000000000000e+00 1.9670412430095825e-02 5.0395315741307023e-01  0.0000000000000000e+00 2.0722540186518083e-02 5.3023421222698186e-01  0.0000000000000000e+00 2.1915704032375898e-02 5.5642912753754981e-01  0.0000000000000000e+00 2.3260752609867597e-02 5.8236953945889292e-01  0.0000000000000000e+00 2.4812527642784001e-02 6.0865060596458875e-01  0.0000000000000000e+00 2.6553896712828904e-02 6.3459136363303559e-01  0.0000000000000000e+00 2.8444565099513885e-02 6.5930412296724439e-01  0.0000000000000000e+00 3.0550731372525439e-02 6.8348177604046401e-01  0.0000000000000000e+00 3.2842569506404413e-02 7.0678352180091242e-01  0.0000000000000000e+00 3.5215660579350626e-02 7.2801022595356357e-01  0.0000000000000000e+00 3.7739944325866769e-02 7.4812985370213514e-01  0.0000000000000000e+00 4.0368108674065199e-02 7.6682962761727036e-01  0.0000000000000000e+00 4.3099696657935095e-02 7.8434361780537221e-01  0.0000000000000000e+00 4.5901041436563449e-02 8.0052064080991703e-01  0.0000000000000000e+00 4.8753506970738193e-02 8.1547268343514634e-01  0.0000000000000000e+00 5.1600746328653156e-02 8.2908284900833595e-01  0.0000000000000000e+00 5.4390960033950851e-02 8.4132532706296093e-01  0.0000000000000000e+00 5.7140337071871279e-02 8.5246095245213804e-01  0.0000000000000000e+00 5.9806676598818692e-02 8.6247551637230668e-01  0.0000000000000000e+00 6.2277282133921835e-02 8.7117815222491113e-01  0.0000000000000000e+00 6.4517501528081472e-02 8.7856567340929870e-01  0.0000000000000000e+00 6.6476337813100556e-02 8.8472531361372397e-01  0.0000000000000000e+00 6.8255645106050755e-02 8.9008103315576070e-01  0.0000000000000000e+00 6.9722527345826055e-02 8.9431478631021877e-01  0.0000000000000000e+00 7.0924754530235043e-02 8.9769484686516632e-01  0.0000000000000000e+00 7.2173187722411672e-02 9.0107119701380767e-01  0.0000000000000000e+00 7.3011708273910195e-02 9.0336163334048192e-01  0.0000000000000000e+00 7.2615987574777996e-02 9.0226116247728372e-01  0.0000000000000000e+00 7.2269463889800017e-02 9.0133393797375616e-01  0.0000000000000000e+00 7.1673502084632870e-02 8.9972237502894725e-01  0.0000000000000000e+00 7.0728203745150153e-02 8.9713908253983976e-01  0.0000000000000000e+00 6.9457677441186250e-02 8.9355614683982143e-01  0.0000000000000000e+00 6.8003617628500740e-02 8.8932896804090755e-01  0.0000000000000000e+00 6.6287628690763642e-02 8.8412809474411491e-01  0.0000000000000000e+00 6.4684007286690409e-02 8.7914373022952164e-01  0.0000000000000000e+00 6.2397216412712952e-02 8.7157752961824375e-01  0.0000000000000000e+00 6.0109734826418036e-02 8.6354655682507886e-01  0.0000000000000000e+00 5.7713725142124160e-02 8.5466673950017558e-01  0.0000000000000000e+00 5.5342811010008257e-02 8.4526670164815498e-01  0.0000000000000000e+00 5.2861648961992892e-02 8.3471339711807246e-01  0.0000000000000000e+00 5.0254164131014717e-02 8.2277595150609339e-01  0.0000000000000000e+00 4.7729168784420017e-02 8.1024969123583235e-01  0.0000000000000000e+00 4.5250705040632500e-02 7.9688909570986288e-01  0.0000000000000000e+00 4.2836355121078362e-02 7.8270670390583863e-01  0.0000000000000000e+00 4.0485819003099235e-02 7.6764381128618142e-01  0.0000000000000000e+00 3.8202279931411426e-02 7.5154197527639366e-01  0.0000000000000000e+00 3.6002898900589761e-02 7.3450148773571411e-01  0.0000000000000000e+00 3.3935939912791376e-02 7.1682101215757732e-01  0.0000000000000000e+00 3.1988703116696125e-02 6.9840883755680161e-01  0.0000000000000000e+00 3.0155003200143551e-02 6.7920084392290259e-01  0.0000000000000000e+00 2.8446007517439583e-02 6.5932665539981716e-01  0.0000000000000000e+00 2.6863437089609081e-02 6.3887792699102386e-01  0.0000000000000000e+00 2.5415322838852027e-02 6.1808097493779734e-01  0.0000000000000000e+00 2.4099085258863839e-02 5.9707439030047915e-01  0.0000000000000000e+00 2.2912506433415841e-02 5.7605796504086648e-01  0.0000000000000000e+00 2.1848844416198557e-02 5.5516315721930865e-01  0.0000000000000000e+00 2.0901489633130436e-02 5.3455365323608750e-01  0.0000000000000000e+00 2.0052687903629410e-02 5.1412334341911292e-01  0.0000000000000000e+00 1.9294970375385155e-02 4.9384420214361036e-01  0.0000000000000000e+00 1.8609799470099813e-02 4.7348003454671650e-01  0.0000000000000000e+00 1.8002267353086847e-02 4.5329247736815892e-01  0.0000000000000000e+00 1.7467092881938671e-02 4.3334006066755004e-01  0.0000000000000000e+00 1.7001520196245280e-02 4.1378677944370729e-01  0.0000000000000000e+00 1.6600765530955918e-02 3.9474481801121813e-01  0.0000000000000000e+00 1.6262575579115771e-02 3.7635661932803188e-01  0.0000000000000000e+00 1.5975919723504980e-02 3.5830042704293602e-01  0.0000000000000000e+00 1.5741931079124249e-02 3.4092538452481908e-01  0.0000000000000000e+00 1.5560129517059294e-02 3.2438969644210197e-01  0.0000000000000000e+00 1.5418376288070652e-02 3.0811675564558572e-01  0.0000000000000000e+00 1.5323060379911027e-02 2.9213339003723859e-01  0.0000000000000000e+00 1.5270339128563848e-02 2.7657016738718659e-01  0.0000000000000000e+00 1.5258817241412552e-02 2.6185002546401470e-01  0.0000000000000000e+00 1.5289225520397019e-02 2.4724614665046094e-01  0.0000000000000000e+00 1.5358824814048547e-02 2.3354733663960697e-01  0.0000000000000000e+00 1.5459041941440052e-02 2.2039165016307680e-01  0.0000000000000000e+00 1.5605332671223141e-02 2.0797141995350832e-01  0.0000000000000000e+00 1.5786299869975498e-02 1.9586329608122280e-01  0.0000000000000000e+00 1.6017076656129489e-02 1.8415288905194790e-01  0.0000000000000000e+00 1.6290831115661174e-02 1.7292731822354401e-01  0.0000000000000000e+00 1.6607107425600176e-02 1.6223181759587810e-01  0.0000000000000000e+00 1.6964612560549510e-02 1.5206512256371149e-01  0.0000000000000000e+00 1.7816929147361698e-02 1.3329779360584498e-01  0.0000000000000000e+00 1.8315500020178913e-02 1.2462039830819954e-01  0.0000000000000000e+00 1.8876577577060006e-02 1.1636679309905534e-01  0.0000000000000000e+00 1.9497523051642200e-02 1.0850943147566741e-01  0.0000000000000000e+00 2.0180655495361476e-02 1.0109119042731690e-01  0.0000000000000000e+00 2.0922507930102259e-02 9.4118214611217721e-02  0.0000000000000000e+00 2.1728089141484542e-02 8.7584159996106081e-02  0.0000000000000000e+00 2.2607094758137648e-02 8.1436954236001016e-02  0.0000000000000000e+00 2.3574196269998821e-02 7.5642960760590711e-02  0.0000000000000000e+00 2.4633615936895645e-02 7.0186492099340761e-02  0.0000000000000000e+00 2.5785892187248319e-02 6.5096041387798009e-02  0.0000000000000000e+00 2.7018389247139264e-02 6.0361424963656131e-02  0.0000000000000000e+00 2.8346372083432502e-02 5.5979036384022351e-02  0.0000000000000000e+00 2.9792583876920228e-02 5.1884893996946242e-02  0.0000000000000000e+00 3.1362449941136100e-02 4.8073920467900336e-02  0.0000000000000000e+00 3.3071355503470352e-02 4.4533906028870834e-02  0.0000000000000000e+00 3.4904955714063594e-02 4.1263840348787273e-02  0.0000000000000000e+00 3.6845817048190829e-02 3.8260750256317165e-02  0.0000000000000000e+00 3.8958099389179657e-02 3.5497506452106899e-02  0.0000000000000000e+00 4.1229460296689939e-02 3.2932196743476590e-02  0.0000000000000000e+00 4.3696386232107483e-02 3.0572258133121009e-02  0.0000000000000000e+00 4.6319171913499789e-02 2.8412240869215885e-02  0.0000000000000000e+00 4.9094820862493053e-02 2.6440643433241727e-02  0.0000000000000000e+00 5.2065461882598169e-02 2.4638909352263587e-02  0.0000000000000000e+00 5.5253006312916270e-02 2.2988009593093144e-02  0.0000000000000000e+00 5.8675571529301217e-02 2.1475517958486030e-02  0.0000000000000000e+00 6.2307880043581822e-02 2.0093039005187104e-02  0.0000000000000000e+00 6.6093204923003732e-02 1.8848055723708304e-02  0.0000000000000000e+00 7.0110128827636453e-02 1.7716776810014122e-02  0.0000000000000000e+00 7.4349176194496269e-02 1.6687707953293014e-02  0.0000000000000000e+00 7.8838233205870717e-02 1.5754617194417109e-02  0.0000000000000000e+00 8.3543007496545169e-02 1.4908118751914232e-02  0.0000000000000000e+00 8.8409447808584021e-02 1.4144506404250244e-02  0.0000000000000000e+00 9.3464937150229785e-02 1.3456056060619313e-02  0.0000000000000000e+00 9.8757299728280498e-02 1.2832182879945883e-02  0.0000000000000000e+00 1.0419278343606914e-01 1.2276048021275366e-02  0.0000000000000000e+00 1.0978309102251739e-01 1.1777828102051106e-02  0.0000000000000000e+00 1.1556027307020621e-01 1.1321768062202010e-02  0.0000000000000000e+00 1.2133830532691602e-01 1.0919250931430346e-02  0.0000000000000000e+00 1.2715517628288314e-01 1.0564637184324519e-02  0.0000000000000000e+00 1.3307623635664922e-01 1.0245088796844755e-02  0.0000000000000000e+00 1.3902247560884043e-01 9.9607110331418978e-03  0.0000000000000000e+00 1.4503075603253460e-01 9.7071468981278532e-03  0.0000000000000000e+00 1.5081482763936715e-01 9.4839445781044942e-03  0.0000000000000000e+00 1.5656821581767458e-01 9.2862571729810696e-03  0.0000000000000000e+00 1.6208916040937490e-01 9.1138692754787008e-03  0.0000000000000000e+00 1.6737260304710289e-01 8.9602968566655557e-03  0.0000000000000000e+00 1.7246137167489498e-01 8.8249718310585909e-03  0.0000000000000000e+00 1.7724789037924607e-01 8.7146949375265098e-03  0.0000000000000000e+00 1.8176288047161460e-01 8.6182273718070444e-03  0.0000000000000000e+00 1.8609469990394262e-01 8.5309384122097143e-03  0.0000000000000000e+00 1.8999739076567310e-01 8.4587592618490838e-03  0.0000000000000000e+00 1.9346420761135966e-01 8.4000945619760650e-03  0.0000000000000000e+00 1.9653998609275317e-01 8.3485818768709863e-03  0.0000000000000000e+00 1.9918332432924543e-01 8.3062779337303126e-03  0.0000000000000000e+00 2.0131413194781711e-01 8.2736759600684617e-03  0.0000000000000000e+00 1.4087820735464002e-01 9.8814144171489888e-03  0.0000000000000000e+00 1.5655683840014187e-02 3.3314682451031946e-01  0.0000000000000000e+00 1.1325803001534461e-01 1.1495787312302230e-02  0.0000000000000000e+00 1.7199560875753580e-02 1.4640299711225110e-01  0.0000000000000000e+00 2.0010336440388585e-01 8.2954510482400393e-03  0.0000000000000000e+00 4.0889404687767424e-02 7.7024700154099557e-01  0.0000000000000000e+00 6.2477640405114380e-02 2.0048538428575870e-02  0.0000000000000000e+00 3.0018181874270914e-02 5.1400586147129348e-02  0.0000000000000000e+00 7.0175896658952741e-02 8.9557198052657050e-01  0.0000000000000000e+00 1.7574693171237825e-02 4.3696970484322339e-01  0.0000000000000000e+00 9.0293523722417154e-02 1.3878036453363355e-02  0.0000000000000000e+00 2.1174556796915479e-02 5.4055043612553311e-01  0.0000000000000000e+00 2.2537832556491291e-02 5.6869374785135163e-01  0.0000000000000000e+00 6.4068125991556105e-02 1.9492035760954249e-02  0.0000000000000000e+00 1.5297236510444632e-02 2.7925743615068621e-01  0.0000000000000000e+00 1.4087035199351491e-01 9.8762183881818729e-03  0.0000000000000000e+00 3.0668986912332663e-02 6.8471094626357820e-01  0.0000000000000000e+00 4.5534218890476846e-02 7.9842432245568939e-01  0.0000000000000000e+00 1.7047375736063841e-01 8.8781845402643705e-03  0.0000000000000000e+00 4.2548491623452207e-02 3.1631798027632482e-02  0.0000000000000000e+00 1.6135126345922818e-02 1.8015288602807189e-01  0.0000000000000000e+00 2.9067822834328648e-02 5.3857981887308538e-02  0.0000000000000000e+00 1.8532754510990324e-01 8.5473442781417181e-03  0.0000000000000000e+00 5.9409744726314530e-02 8.6107568860629013e-01  0.0000000000000000e+00 1.9117945830229896e-02 1.1359984397138197e-01  0.0000000000000000e+00 2.3134723521129507e-02 7.8202536152673849e-02  0.0000000000000000e+00 1.9852377952747868e-01 8.3193612060182866e-03  0.0000000000000000e+00 1.7316632181606165e-01 8.8130666722314593e-03  0.0000000000000000e+00 1.5331751362163599e-02 2.3880763917990511e-01  0.0000000000000000e+00 5.7024023378215688e-02 8.5200174093653014e-01  0.0000000000000000e+00 4.5655841152797270e-02 2.8965397201575441e-02  0.0000000000000000e+00 8.8593248373108877e-02 1.4120945196364188e-02  0.0000000000000000e+00 6.8437104009572911e-02 8.9058707486834343e-01  0.0000000000000000e+00 2.2484924408102409e-02 8.2492398525735131e-02  0.0000000000000000e+00 1.9874562465538356e-02 1.0433064285359300e-01  0.0000000000000000e+00 2.0326544694551668e-01 8.2483677308391092e-03  0.0000000000000000e+00 2.9055958455272906e-02 6.6648837128845773e-01  0.0000000000000000e+00 1.7160472864488786e-02 4.2048785567896307e-01  0.0000000000000000e+00 1.8985285264616081e-01 8.4661498133847927e-03  0.0000000000000000e+00 1.1737756028805281e-01 1.1190300192790633e-02  0.0000000000000000e+00 1.5952714379251040e-02 1.8741445002055065e-01  0.0000000000000000e+00 6.5515048300507708e-02 8.8173693441990286e-01  0.0000000000000000e+00 3.7141379518124538e-02 3.7933048518079979e-02  0.0000000000000000e+00 1.5356121528255931e-01 9.3865543732795098e-03  0.0000000000000000e+00 5.3393302910603839e-02 2.3942192099738933e-02  0.0000000000000000e+00 7.0884306759720711e-02 8.9752653648128788e-01  0.0000000000000000e+00 4.9056178348945045e-02 8.1692615005048641e-01  0.0000000000000000e+00 2.5882898684068113e-02 6.4855038286529845e-02  0.0000000000000000e+00 1.6090768653987435e-02 3.6471762865732965e-01  0.0000000000000000e+00 1.5791860097888122e-01 9.2454813745699166e-03  0.0000000000000000e+00 9.9960336795567400e-02 1.2698874366250404e-02  0.0000000000000000e+00 5.3638585332496193e-02 2.3789198089799974e-02  0.0000000000000000e+00 3.6384727902005601e-02 7.3749854219174038e-01  0.0000000000000000e+00 3.5972494589415704e-02 3.9559013425706425e-02  0.0000000000000000e+00 1.5290004235717226e-02 2.8234372078003667e-01  0.0000000000000000e+00 7.6198980857540288e-02 1.6289485485125318e-02  0.0000000000