<?xml version="1.0"?>
<VTKFile type="UnstructuredGrid"  version="0.1"  >
<UnstructuredGrid>
<Piece  NumberOfPoints="4940" NumberOfCells="9650">
<Points>
<DataArray  type="Float64"  NumberOfComponents="3"  format="ascii">500 250 0  0 250 0  250 500 0  250 0 0  256.8885856082646 499.9050767557906 0  263.7719401218049 499.6203791065173 0  270.6448364229772 499.1461232471188 0  277.5020553257866 498.4826693209355 0  284.3383895508592 497.6305211460281 0  291.1486476865662 496.5903258312597 0  297.9276581259182 495.3628732847843 0  304.6702729675493 493.9490956196674 0  311.3713719748657 492.3500664368026 0  318.0258664141369 490.5670000199653 0  324.6287029687753 488.6012504015818 0  331.1748675330201 486.4543103455647 0  337.6593890460416 484.1278102064655 0  344.0773432429536 481.6235166997244 0  350.4238564271474 478.9433315480048 0  356.694109139292 476.0892900492477 0  362.88333985546 473.0635595140469 0  368.9868485575419 469.8684376402048 0  375.0000003153078 466.5063507640667 0  380.9182288257928 462.9798520074548 0  386.7370398729688 459.2916193419558 0  392.4520147244077 455.444453565817 0  398.0588135356345 451.4412761437442 0  403.5531785622926 447.285127045646 0  408.9309374414144 442.9791624087773 0  414.1880064015299 438.5266521049243 0  419.3203932989752 433.9309773069245 0  424.324200661095 429.1956279150535 0  429.1956286596235 424.3241998957182 0  433.9309780058756 419.3203925397119 0  438.5266527445345 414.1880056671062 0  442.9791630130591 408.9309367076756 0  447.2851276060475 403.5531778422888 0  451.4412766621026 398.0588128303826 0  455.4444540361634 392.4520140460735 0  459.2916197786263 386.7370392045948 0  462.9798524073514 380.9182281752347 0  466.5063511234856 374.9999996927758 0  469.8684379657123 368.9868479560565 0  473.0635598144817 362.8833392617846 0  476.0892903190255 356.6941085676214 0  478.9433317963513 350.4238558609745 0  481.6235169154735 344.0773427117675 0  484.12781039012 337.6593885555221 0  486.4543105028062 331.1748670749914 0  488.601250531677 324.6287025528375 0  490.5670001317469 318.0258660188321 0  492.3500665291326 311.3713716102628 0  493.949095695951 304.6702726271575 0  495.3628733416623 297.9276578347343 0  496.5903258712341 291.1486474470129 0  497.6305211749058 284.3383893426084 0  498.4826693388848 277.502055163614 0  499.1461232580606 270.6448362909296 0  499.6203791109319 263.7719400417897 0  499.9050767571306 256.8885855596534 0  499.9050767559877 243.1114143988867 0  499.6203791069493 236.2280598860241 0  499.1461232485393 229.3551635941651 0  498.4826693235677 222.4979446979962 0  497.6305211491849 215.6616104719064 0  496.5903258357701 208.8513523404629 0  495.3628732906988 202.0723419043604 0  493.9490956264813 195.3297270628552 0  492.3500664487791 188.6286280724281 0  490.5670000344809 181.9741336371959 0  488.6012504175981 175.3712970824318 0  486.4543103623226 168.8251325157939 0  484.1278102222298 162.3406109960628 0  481.6235167152198 155.9226567951971 0  478.9433315621651 149.5761436051346 0  476.0892900516498 143.3058908657982 0  473.063559513628 137.1166601437124 0  469.8684376406648 131.0131514433083 0  466.5063507675389 124.9999996907064 0  462.9798520124137 119.0817711822745 0  459.2916193464549 113.2629601339176 0  455.4444535642773 107.5479852733717 0  451.4412761528674 101.9411864767781 0  447.2851270583545 96.44682145403524 0  442.9791624165781 91.06906256805769 0  438.5266521117469 85.81199360630404 0  433.9309773156125 80.67960671046254 0  429.1956279150353 75.67579933888632 0  424.3241998888952 70.80437133373906 0  419.3203925223282 66.06902197812161 0  414.1880056411937 61.47334723289828 0  408.9309366751728 57.0208369601728 0  403.5531778009394 52.71487236176898 0  398.058812796452 48.55872331295853 0  392.4520140187753 44.55554594490843 0  386.7370391799677 40.70838020528396 0  380.9182281475119 37.02014757560744 0  374.9999996718656 33.49364886444181 0  368.9868479340393 30.13156202237255 0  362.8833392380029 26.93644017348339 0  356.6941085456942 23.91070967062674 0  350.4238558420009 21.0566681953261 0  344.0773426899492 18.37648307566465 0  337.6593885328982 15.87218960140942 0  331.1748670549786 13.54568949032341 0  324.6287025315056 11.39874946165088 0  318.0258660010876 9.432999863235466 0  311.3713716017894 7.649933468721599 0  304.6702726190621 6.050904302234756 0  297.9276578269805 4.637126656823085 0  291.148647441857 3.409674127905504 0  284.3383893425031 2.369478825079682 0  277.502055159398 1.517330660648639 0  270.6448362875833 0.853876741662134 0  263.7719400401456 0.3796208889774277 0  256.8885855592052 0.09492324285704967 0  243.1114143979462 0.09492324403817065 0  236.2280598850882 0.3796208931023841 0  229.3551635938215 0.8538767514891958 0  222.4979446968584 1.517330676558146 0  215.6616104703111 2.369478851036291 0  208.8513523382973 3.409674164591252 0  202.0723419066374 4.637126708856528 0  195.3297270659513 6.050904372824903 0  188.628628074828 7.649933550613184 0  181.9741336377093 9.432999965373938 0  175.3712970793675 11.39874958336037 0  168.8251325057572 13.54568964112298 0  162.340610986655 15.87218978129263 0  155.9226567874317 18.37648328793418 0  149.576143602509 21.05666843898663 0  143.3058908718157 23.91070994551046 0  137.1166601505524 26.93644048291054 0  131.0131514451933 30.13156235831508 0  124.9999996848412 33.49364923584736 0  119.0817711715717 37.0201479941652 0  113.2629601211624 40.70838066187849 0  107.5479852622251 44.55554644345162 0  101.9411864693332 48.55872385260452 0  96.44682143286516 52.71487295812284 0  91.06906254351222 57.02083760363669 0  85.81199358272519 61.4733479087879 0  80.67960667988106 66.06902271253972 0  75.67579930062769 70.80437212218331 0  70.80437129287643 75.67580015310926 0  66.06902193673014 80.67960752263491 0  61.47334718684866 85.81199441168215 0  57.02083692524275 91.0690633672404 0  52.71487232786438 96.44682224262129 0  48.55872328070024 101.941187247437 0  44.55554591578033 107.5479860232332 0  40.7083801742321 113.2629608675606 0  37.02014754791168 119.0817718975441 0  33.49364883372994 125.000000381329 0  30.13156199866361 131.0131521097709 0  26.9364401549829 137.1166607985551 0  23.91070965524918 143.3058914868915 0  21.05666818346614 149.576144185037 0  18.37648306853811 155.9226573275967 0  15.8721895918909 162.3406114925245 0  13.54568948170046 168.8251329701392 0  11.39874945301878 175.3712974960928 0  9.432999857087736 181.9741340206533 0  7.649933466342702 188.6286284076045 0  6.050904301250966 195.3297273853278 0  4.637126656808988 202.0723421730917 0  3.409674127767772 208.8513525589684 0  2.369478824521138 215.6616106615248 0  1.517330660909465 222.4979448382452 0  0.8538767414496533 229.355163714981 0  0.3796208887135322 236.2280599646376 0  0.09492324266324204 243.1114144478261 0  0.0949232442452228 256.8885856095658 0  0.3796208935834784 263.7719401236316 0  0.8538767530323526 270.6448364248016 0  1.517330679476544 277.5020553295092 0  2.369478854618649 284.3383895555228 0  3.409674170191892 291.1486476952655 0  4.6371267162381 297.9276581311522 0  6.050904381420935 304.6702729724059 0  7.649933562385399 311.3713719716595 0  9.43299997979841 318.0258664133013 0  11.3987495994252 324.6287029719946 0  13.54568965885832 331.174867545904 0  15.87218979367188 337.6593890464085 0  18.37648329843151 344.0773432384132 0  21.05666844777872 350.423856417535 0  23.91070995156048 356.6941091410045 0  26.93644048988043 362.8833398632205 0  30.13156235982007 368.9868485575877 0  33.49364924138357 375.0000003247478 0  37.0201480006036 380.9182288389023 0  40.70838066758398 386.7370398875706 0  44.55554644477201 392.4520147396792 0  48.55872386086904 398.0588135419111 0  52.71487295981296 403.5531785693063 0  57.02083760525949 408.9309374584583 0  61.47334790862246 414.1880064170849 0  66.06902271205095 419.320393319588 0  70.80437211216579 424.3242006890749 0  75.67580013809859 429.195628692521 0  80.6796075127923 433.930978054209 0  85.81199439754931 438.5266528008431 0  91.06906334717917 442.9791630582355 0  96.44682221438322 447.2851276501571 0  101.9411872243843 451.441276702356 0  107.5479859945825 455.4444540643537 0  113.2629608446994 459.2916198108319 0  119.0817718768376 462.9798524393601 0  125.0000003647644 466.5063511567065 0  131.0131521012763 469.8684379967393 0  137.1166607840049 473.0635598376539 0  143.3058914748804 476.0892903390826 0  149.5761441732679 478.9433318113714 0  155.9226573130112 481.6235169255377 0  162.3406114779862 484.1278104026658 0  168.8251329570439 486.4543105138039 0  175.3712974805475 488.601250542119 0  181.9741340135204 490.5670001408953 0  188.6286284005059 492.3500665318597 0  195.3297273788229 493.9490956972913 0  202.0723421640089 495.3628733414168 0  208.8513525529672 496.5903258712308 0  215.6616106544547 497.6305211744985 0  222.4979448327038 498.4826693384772 0  229.3551637102845 499.1461232581612 0  236.2280599621369 499.6203791111485 0  243.1114144470173 499.9050767573145 0  155.2373389820306 474.8197567317462 0  25.36256300907667 153.9152755065208 0  432.3709625126712 412.6214396304305 0  6.013151705810699 246.637913163471 0  246.6379131630491 493.986848294322 0  338.6995838441862 22.68244767887072 0  477.3175523131281 338.6995838660569 0  493.9868482700757 246.6379131399102 0  246.6201155078769 6.218451882810491 0  417.6179310263282 72.7156044707053 0  102.2232990934413 445.0100869616822 0  63.66330858966404 92.20354579482142 0  391.3105220491464 50.73522820883105 0  72.79295043967942 418.0702734974704 0  448.290574428537 108.25674339002 0  402.4604651193511 440.7462829841712 0  97.55317348421397 59.11376320116034 0  136.7376477664901 33.58246472647134 0  363.3288394375288 465.6947312928271 0  44.0678766556007 381.0860953771871 0  469.6905266180034 142.3890690100806 0  22.68244791668644 338.6995843487432 0  338.699584349159 477.317552078365 0  173.389488083762 18.6681884918202 0  483.4809734778481 179.7121987795732 0  13.50237455842738 306.4709525540879 0  305.9825168523021 487.24416992
[...]
<PointData  Vectors="f_12"> 
<DataArray  type="Float64"  Name="f_12"  NumberOfComponents="3" format="ascii">0.0000000000000000e+00 2.7043501486691251e-02 6.3956327032135607e-01  0.0000000000000000e+00 2.0168010300306685e-01 1.0165429785837696e+00  0.0000000000000000e+00 3.3802966552503567e-02 4.3161187610049619e-02  0.0000000000000000e+00 7.1639567891071287e-01 5.0660670924745410e-01  0.0000000000000000e+00 3.4010086671166888e-02 4.2785173432840121e-02  0.0000000000000000e+00 3.4132314910816856e-02 4.2567170490580335e-02  0.0000000000000000e+00 3.4203479843496240e-02 4.2439772135787639e-02  0.0000000000000000e+00 3.4200053073644932e-02 4.2447709127917926e-02  0.0000000000000000e+00 3.4133180139880676e-02 4.2566668061551155e-02  0.0000000000000000e+00 3.4001702950929087e-02 4.2801077627290567e-02  0.0000000000000000e+00 3.3807813217248087e-02 4.3150952235125634e-02  0.0000000000000000e+00 3.3557807502420024e-02 4.3611259753260960e-02  0.0000000000000000e+00 3.3251448916899483e-02 4.4187856584141601e-02  0.0000000000000000e+00 3.2887936245375088e-02 4.4891429843873377e-02  0.0000000000000000e+00 3.2453953205887405e-02 4.5761153165701438e-02  0.0000000000000000e+00 3.2012880637091075e-02 4.6676030024013021e-02  0.0000000000000000e+00 3.1482523557863844e-02 4.7827855292025073e-02  0.0000000000000000e+00 3.0953214326957631e-02 4.9037651146355603e-02  0.0000000000000000e+00 3.0392491351433858e-02 5.0387886432246093e-02  0.0000000000000000e+00 2.9814713887043112e-02 5.1854942833230694e-02  0.0000000000000000e+00 2.9232914260153790e-02 5.3423920818860611e-02  0.0000000000000000e+00 2.8635397091184542e-02 5.5153108013795756e-02  0.0000000000000000e+00 2.8031660026034830e-02 5.7019384636797947e-02  0.0000000000000000e+00 2.7431079247878281e-02 5.9005095874028204e-02  0.0000000000000000e+00 2.6813354142093331e-02 6.1195673555156233e-02  0.0000000000000000e+00 2.6168067931331550e-02 6.3667594735343239e-02  0.0000000000000000e+00 2.5491462063688460e-02 6.6459599553959497e-02  0.0000000000000000e+00 2.4816470759626744e-02 6.9488905188022809e-02  0.0000000000000000e+00 2.4139172054606847e-02 7.2814842995257131e-02  0.0000000000000000e+00 2.3457212117772179e-02 7.6487497017827352e-02  0.0000000000000000e+00 2.2811089447546978e-02 8.0356025785905477e-02  0.0000000000000000e+00 2.2188386730104405e-02 8.4494925251823741e-02  0.0000000000000000e+00 2.1590390710287660e-02 8.8933190934332107e-02  0.0000000000000000e+00 2.1008304220163743e-02 9.3732148441756855e-02  0.0000000000000000e+00 2.0420883658442100e-02 9.9136313508230336e-02  0.0000000000000000e+00 1.9841593282773341e-02 1.0513836503063903e-01  0.0000000000000000e+00 1.9276935942009969e-02 1.1171728895472337e-01  0.0000000000000000e+00 1.8732246961618543e-02 1.1895906565995715e-01  0.0000000000000000e+00 1.8225250898663569e-02 1.2679487475251125e-01  0.0000000000000000e+00 1.7765275929091610e-02 1.3508154699201583e-01  0.0000000000000000e+00 1.7344128188665736e-02 1.4397340974897266e-01  0.0000000000000000e+00 1.6945206556300999e-02 1.5390150095036886e-01  0.0000000000000000e+00 1.6564972863499932e-02 1.6505094611029447e-01  0.0000000000000000e+00 1.6224946659054568e-02 1.7729703689157736e-01  0.0000000000000000e+00 1.5929665532360845e-02 1.9064665354745000e-01  0.0000000000000000e+00 1.5690345994411808e-02 2.0499077610243185e-01  0.0000000000000000e+00 1.5506818496372020e-02 2.2038157972531036e-01  0.0000000000000000e+00 1.5384531343741199e-02 2.3712264201916503e-01  0.0000000000000000e+00 1.5316987150652075e-02 2.5598124993245142e-01  0.0000000000000000e+00 1.5318753645817532e-02 2.7671501582217761e-01  0.0000000000000000e+00 1.5410154374513586e-02 2.9922441855641202e-01  0.0000000000000000e+00 1.5594518083975521e-02 3.2325657174051919e-01  0.0000000000000000e+00 1.5896742290884711e-02 3.4899340356717806e-01  0.0000000000000000e+00 1.6330487998734315e-02 3.7713577107761104e-01  0.0000000000000000e+00 1.6928885453100749e-02 4.0798948171363042e-01  0.0000000000000000e+00 1.7733601190306356e-02 4.4141461361125389e-01  0.0000000000000000e+00 1.8786021599767392e-02 4.7726024597062267e-01  0.0000000000000000e+00 2.0145080088670921e-02 5.1498254834680768e-01  0.0000000000000000e+00 2.1872316646448578e-02 5.5446811150275632e-01  0.0000000000000000e+00 2.3959277820030669e-02 5.9497550255978826e-01  0.0000000000000000e+00 3.0707549927292389e-02 6.8471915494491165e-01  0.0000000000000000e+00 3.5450257847301062e-02 7.2956803352558486e-01  0.0000000000000000e+00 4.1253898983875471e-02 7.7258595774711591e-01  0.0000000000000000e+00 4.8577549087374328e-02 8.1436606810170009e-01  0.0000000000000000e+00 5.7558504667451528e-02 8.5408479819576666e-01  0.0000000000000000e+00 6.8491859073751132e-02 8.9082052933114131e-01  0.0000000000000000e+00 8.1159199387333097e-02 9.2307425734571669e-01  0.0000000000000000e+00 9.5382045665835649e-02 9.5022455263454930e-01  0.0000000000000000e+00 1.1114612575316439e-01 9.7255155453448816e-01  0.0000000000000000e+00 1.2858265167587729e-01 9.9033835108490031e-01  0.0000000000000000e+00 1.4775699577728027e-01 1.0035136948811616e+00  0.0000000000000000e+00 1.6803730761731234e-01 1.0119917772405012e+00  0.0000000000000000e+00 1.8901359659653200e-01 1.0160522826818974e+00  0.0000000000000000e+00 2.1030205562702881e-01 1.0161599827618069e+00  0.0000000000000000e+00 2.3206088187677362e-01 1.0128358686710095e+00  0.0000000000000000e+00 2.5444704313228972e-01 1.0063452034348324e+00  0.0000000000000000e+00 2.7729470932348238e-01 9.9692023523825235e-01  0.0000000000000000e+00 3.0001003874944421e-01 9.8509696593417473e-01  0.0000000000000000e+00 3.2210217163701793e-01 9.7150670432460728e-01  0.0000000000000000e+00 3.4352377777689874e-01 9.5655887349977331e-01  0.0000000000000000e+00 3.6465847714619870e-01 9.4024435747914348e-01  0.0000000000000000e+00 3.8553432965552836e-01 9.2270638008473360e-01  0.0000000000000000e+00 4.0628550119164974e-01 9.0399712407989974e-01  0.0000000000000000e+00 4.2631951686481689e-01 8.8477698702924512e-01  0.0000000000000000e+00 4.4534818725147191e-01 8.6553263793661461e-01  0.0000000000000000e+00 4.6326435900164720e-01 8.4657758804977190e-01  0.0000000000000000e+00 4.8031865806977492e-01 8.2781337721253534e-01  0.0000000000000000e+00 4.9688169465883636e-01 8.0894580562390572e-01  0.0000000000000000e+00 5.1310301268132996e-01 7.8986669270130017e-01  0.0000000000000000e+00 5.2888666533337114e-01 7.7075859747962627e-01  0.0000000000000000e+00 5.4388662482791317e-01 7.5210647802943631e-01  0.0000000000000000e+00 5.5786172976662718e-01 7.3431114022557087e-01  0.0000000000000000e+00 5.7083078090825312e-01 7.1744340226926651e-01  0.0000000000000000e+00 5.8282983146560674e-01 7.0154437285307569e-01  0.0000000000000000e+00 5.9406129928436857e-01 6.8640875831464065e-01  0.0000000000000000e+00 6.0504874704827327e-01 6.7136640475796316e-01  0.0000000000000000e+00 6.1569770989167605e-01 6.5657799193927868e-01  0.0000000000000000e+00 6.2570838985828092e-01 6.4248094741726058e-01  0.0000000000000000e+00 6.3533576317006779e-01 6.2874611010136816e-01  0.0000000000000000e+00 6.4441197369023540e-01 6.1565185037080794e-01  0.0000000000000000e+00 6.5244291868325033e-01 6.0393401618376230e-01  0.0000000000000000e+00 6.5980420473401102e-01 5.9309564438289575e-01  0.0000000000000000e+00 6.6646959786720750e-01 5.8319580271244531e-01  0.0000000000000000e+00 6.7261256579897255e-01 5.7400598313383422e-01  0.0000000000000000e+00 6.7826544055575200e-01 5.6548928926752784e-01  0.0000000000000000e+00 6.8353138659271906e-01 5.5750626915910773e-01  0.0000000000000000e+00 6.8840679556237827e-01 5.5007233077807149e-01  0.0000000000000000e+00 6.9289311489927252e-01 5.4319558874455243e-01  0.0000000000000000e+00 6.9707831693045141e-01 5.3674916001722917e-01  0.0000000000000000e+00 7.0094244549225582e-01 5.3077016108548380e-01  0.0000000000000000e+00 7.0438360305089875e-01 5.2542540614185240e-01  0.0000000000000000e+00 7.0738211093591985e-01 5.2075005839848965e-01  0.0000000000000000e+00 7.0992642377385695e-01 5.1677194848395913e-01  0.0000000000000000e+00 7.1216776045714558e-01 5.1325858987741624e-01  0.0000000000000000e+00 7.1396070263017797e-01 5.1044142853742580e-01  0.0000000000000000e+00 7.1539752008739754e-01 5.0818059605829979e-01  0.0000000000000000e+00 7.1683830369624568e-01 5.0590796070056265e-01  0.0000000000000000e+00 7.1783084820540277e-01 5.0434389134502822e-01  0.0000000000000000e+00 7.1736258594687508e-01 5.0508095644477402e-01  0.0000000000000000e+00 7.1697143930158913e-01 5.0569807227620245e-01  0.0000000000000000e+00 7.1628900238938975e-01 5.0677434773315977e-01  0.0000000000000000e+00 7.1518888088151766e-01 5.0850839227194344e-01  0.0000000000000000e+00 7.1367552297807324e-01 5.1088940471766364e-01  0.0000000000000000e+00 7.1190947628046075e-01 5.1366344850689494e-01  0.0000000000000000e+00 7.0976488887715783e-01 5.1702405885549885e-01  0.0000000000000000e+00 7.0772654585675565e-01 5.2021405042897451e-01  0.0000000000000000e+00 7.0468998056499699e-01 5.2494835563216258e-01  0.0000000000000000e+00 7.0153605470968661e-01 5.2984861039936060e-01  0.0000000000000000e+00 6.9811966291938288e-01 5.3514040504970239e-01  0.0000000000000000e+00 6.9459066664096758e-01 5.4058415976714191e-01  0.0000000000000000e+00 6.9072025454342978e-01 5.4652952088511075e-01  0.0000000000000000e+00 6.8643378565251811e-01 5.5308501013949107e-01  0.0000000000000000e+00 6.8202665947948493e-01 5.5979186533738645e-01  0.0000000000000000e+00 6.7739845747565408e-01 5.6679872536915732e-01  0.0000000000000000e+00 6.7251818894019122e-01 5.7414639984618776e-01  0.0000000000000000e+00 6.6731557245969475e-01 5.8193477821013273e-01  0.0000000000000000e+00 6.6167856705787553e-01 5.9031808972692601e-01  0.0000000000000000e+00 6.5559421009617236e-01 5.9930490265497771e-01  0.0000000000000000e+00 6.4912039189269033e-01 6.0879387078622615e-01  0.0000000000000000e+00 6.4218793094966431e-01 6.1887196745898754e-01  0.0000000000000000e+00 6.3476465736487753e-01 6.2956717572711962e-01  0.0000000000000000e+00 6.2691892047733222e-01 6.4076197535174773e-01  0.0000000000000000e+00 6.1872039472321172e-01 6.5233916397126934e-01  0.0000000000000000e+00 6.1028948940802741e-01 6.6411511129697764e-01  0.0000000000000000e+00 6.0168214219238747e-01 6.7600020182909604e-01  0.0000000000000000e+00 5.9293230455275359e-01 6.8793921476850750e-01  0.0000000000000000e+00 5.8399284053199041e-01 6.9998626960624533e-01  0.0000000000000000e+00 5.7479721820559615e-01 7.1221744448389890e-01  0.0000000000000000e+00 5.6514347495650574e-01 7.2488018663440035e-01  0.0000000000000000e+00 5.5488309725054508e-01 7.3813351001819738e-01  0.0000000000000000e+00 5.4385657627668071e-01 7.5214069109194814e-01  0.0000000000000000e+00 5.3221223201458434e-01 7.6665823047071002e-01  0.0000000000000000e+00 5.2008654693310097e-01 7.8147411173049519e-01  0.0000000000000000e+00 5.0769767879289462e-01 7.9628528217987615e-01  0.0000000000000000e+00 4.9518844724067196e-01 8.1089629043583189e-01  0.0000000000000000e+00 4.8263891221391525e-01 8.2520629001910195e-01  0.0000000000000000e+00 4.6964655114704790e-01 8.3962511110093607e-01  0.0000000000000000e+00 4.5628970743023251e-01 8.5404224416113883e-01  0.0000000000000000e+00 4.4249455928364401e-01 8.6847367918021223e-01  0.0000000000000000e+00 4.2772640056203332e-01 8.8337517429340473e-01  0.0000000000000000e+00 4.1205951465785895e-01 8.9856330960736286e-01  0.0000000000000000e+00 3.9582715542215374e-01 9.1357168126230837e-01  0.0000000000000000e+00 3.7974957571444090e-01 9.2769751176284065e-01  0.0000000000000000e+00 3.6313354650378832e-01 9.4145557324797846e-01  0.0000000000000000e+00 3.4674123581687982e-01 9.5415559416661933e-01  0.0000000000000000e+00 3.2997155103470616e-01 9.6618442449962838e-01  0.0000000000000000e+00 3.1274995958112467e-01 9.7749000706050548e-01  0.0000000000000000e+00 2.9458070303674871e-01 9.8810673522246939e-01  0.0000000000000000e+00 2.7572418737342330e-01 9.9764086143997843e-01  0.0000000000000000e+00 2.5673888811213641e-01 1.0055085704193798e+00  0.0000000000000000e+00 2.3806787352260408e-01 1.0113678540553102e+00  0.0000000000000000e+00 2.1978722085388758e-01 1.0150873231994026e+00  0.0000000000000000e+00 1.8351679161498338e-01 1.0153936286328482e+00  0.0000000000000000e+00 1.6531592946401683e-01 1.0111404879129475e+00  0.0000000000000000e+00 1.4740955421212901e-01 1.0033587720615915e+00  0.0000000000000000e+00 1.3035099091296273e-01 9.9178066344983251e-01  0.0000000000000000e+00 1.1449818682725926e-01 9.7648408158980460e-01  0.0000000000000000e+00 9.9867651474424862e-02 9.5731454793164661e-01  0.0000000000000000e+00 8.6318664319128505e-02 9.3387361213313536e-01  0.0000000000000000e+00 7.3841005069818041e-02 9.0559695750182390e-01  0.0000000000000000e+00 6.2661292081604369e-02 8.7255504144313656e-01  0.0000000000000000e+00 5.3063482545618303e-02 8.3562168301531747e-01  0.0000000000000000e+00 4.5104864072936360e-02 7.9605255203906322e-01  0.0000000000000000e+00 3.8610101628646469e-02 7.5441636376797550e-01  0.0000000000000000e+00 3.3303398384361679e-02 7.1084450229740170e-01  0.0000000000000000e+00 2.8994060294741882e-02 6.6547985593218628e-01  0.0000000000000000e+00 2.5578136080638549e-02 6.1992998562827473e-01  0.0000000000000000e+00 2.2930047748708878e-02 5.7552466524460755e-01  0.0000000000000000e+00 2.0883202252518520e-02 5.3305130177586491e-01  0.0000000000000000e+00 1.9292910964777608e-02 4.9262503960254689e-01  0.0000000000000000e+00 1.8065231010794380e-02 4.5364421008675015e-01  0.0000000000000000e+00 1.7113707954069707e-02 4.1670026335652516e-01  0.0000000000000000e+00 1.6418194318410642e-02 3.8234774891736656e-01  0.0000000000000000e+00 1.5919553487035405e-02 3.5091848038332218e-01  0.0000000000000000e+00 1.5580277304802190e-02 3.2193509076941207e-01  0.0000000000000000e+00 1.5384745522865640e-02 2.9486261915102058e-01  0.0000000000000000e+00 1.5308989469180202e-02 2.6974034166653782e-01  0.0000000000000000e+00 1.5339974723491788e-02 2.4685105592807871e-01  0.0000000000000000e+00 1.5459814316203751e-02 2.2618214137257261e-01  0.0000000000000000e+00 1.5655529626003448e-02 2.0756896595900229e-01  0.0000000000000000e+00 1.5939127216228664e-02 1.9039588583729330e-01  0.0000000000000000e+00 1.6296542826328649e-02 1.7463953052018652e-01  0.0000000000000000e+00 1.6721136869606655e-02 1.6037652107269459e-01  0.0000000000000000e+00 1.7194034062285458e-02 1.4763337114750444e-01  0.0000000000000000e+00 1.7712044333849226e-02 1.3624985985215829e-01  0.0000000000000000e+00 1.8286297185247737e-02 1.2590145919183840e-01  0.0000000000000000e+00 1.8926059650946597e-02 1.1638372990167246e-01  0.0000000000000000e+00 1.9610879056765996e-02 1.0779829099864441e-01  0.0000000000000000e+00 2.0326004652606054e-02 1.0014529609390545e-01  0.0000000000000000e+00 2.1065550368777618e-02 9.3301133005876960e-02  0.0000000000000000e+00 2.1816773433520537e-02 8.7247671650663688e-02  0.0000000000000000e+00 2.2596963048989591e-02 8.1797321875503703e-02  0.0000000000000000e+00 2.3417579450263071e-02 7.6789037872144569e-02  0.0000000000000000e+00 2.4263875287448680e-02 7.2231427156824304e-02  0.0000000000000000e+00 2.5127564762491648e-02 6.8125186750006311e-02  0.0000000000000000e+00 2.5960027659827929e-02 6.4536103113147794e-02  0.0000000000000000e+00 2.6776231525684438e-02 6.1376929197999822e-02  0.0000000000000000e+00 2.7554906350540587e-02 5.8620069163370987e-02  0.0000000000000000e+00 2.8301854990387124e-02 5.6188696341928697e-02  0.0000000000000000e+00 2.9030119694088252e-02 5.4007582274473789e-02  0.0000000000000000e+00 2.9739361377424230e-02 5.2068897893690520e-02  0.0000000000000000e+00 3.0426429734198814e-02 5.0316233539791429e-02  0.0000000000000000e+00 3.1094197615456929e-02 4.8721956879115909e-02  0.0000000000000000e+00 3.1709473051074459e-02 4.7341194287512885e-02  0.0000000000000000e+00 3.2263643284916932e-02 4.6166618589063596e-02  0.0000000000000000e+00 3.2753473058392928e-02 4.5168188190021621e-02  0.0000000000000000e+00 3.3173561836962816e-02 4.4344604038704855e-02  0.0000000000000000e+00 3.3515261927995359e-02 4.3695151278586628e-02  0.0000000000000000e+00 2.4610225475800811e-02 7.0542186216729003e-02  0.0000000000000000e+00 4.4992969530025406e-01 8.6075012645619342e-01  0.0000000000000000e+00 2.0606659534311018e-02 9.7371369466074414e-02  0.0000000000000000e+00 2.0928664035645225e-01 1.0162524389023968e+00  0.0000000000000000e+00 3.3477068793821202e-02 4.3772455025071648e-02  0.0000000000000000e+00 6.6766998342022887e-01 5.8140321635745873e-01  0.0000000000000000e+00 1.5431317624463746e-02 2.2997249408604908e-01  0.0000000000000000e+00 2.8787456220749318e-02 6.6343336275243225e-01  0.0000000000000000e+00 7.1445510723036054e-01 5.0966087558519724e-01  0.0000000000000000e+00 5.1981143368547467e-01 7.8180833187463039e-01  0.0000000000000000e+00 1.7943330342356508e-02 1.3187558099144292e-01  0.0000000000000000e+00 5.7749047322679570e-01 7.0864927818157686e-01  0.0000000000000000e+00 5.8826172263199894e-01 6.9425079642962328e-01  0.0000000000000000e+00 1.5548989606185221e-02 2.1674123845887913e-01  0.0000000000000000e+00 3.9540910414492392e-01 9.1396331206796244e-01  0.0000000000000000e+00 2.4398346287350783e-02 7.1513772388227675e-02  0.0000000000000000e+00 6.3689891170600976e-01 6.2650151211544680e-01  0.0000000000000000e+00 6.7790078294334044e-01 5.6603826797549772e-01  0.0000000000000000e+00 2.8760588625987172e-02 5.4786068452680095e-02  0.0000000000000000e+00 1.6707763793378145e-02 3.9738847856808529e-01  0.0000000000000000e+00 2.6621240403237706e-01 1.0018103465274892e+00  0.0000000000000000e+00 3.0957964431422166e-02 6.8780295407526570e-01  0.0000000000000000e+00 3.1066036671596998e-02 4.8781938380629664e-02  0.0000000000000000e+00 7.0057212996962015e-01 5.3134502771624570e-01  0.0000000000000000e+00 1.4025897549715566e-01 9.9905803095332069e-01  0.0000000000000000e+00 6.7497893935909450e-02 8.8795130458439997e-01  0.0000000000000000e+00 3.3236229828574354e-02 4.4225640053816732e-02  0.0000000000000000e+00 2.9258886977069735e-02 5.3373813103472376e-02  0.0000000000000000e+00 3.5316108429859377e-01 9.4927426144242022e-01  0.0000000000000000e+00 6.9693830916533361e-01 5.3696450577701305e-01  0.0000000000000000e+00 1.6122689821646951e-02 3.6450821675553657e-01  0.0000000000000000e+00 1.7588262177960164e-02 1.3870758083601262e-01  0.0000000000000000e+00 7.1240574012246860e-01 5.1288257573477980e-01  0.0000000000000000e+00 7.5793227789241510e-02 9.1045961029218447e-01  0.0000000000000000e+00 1.2140505918646358e-01 9.8376246992016148e-01  0.0000000000000000e+00 3.3984820298979430e-02 4.2839209001567610e-02  0.0000000000000000e+00 6.2864903162281893e-01 6.3829930438771720e-01  0.0000000000000000e+00 5.1202677599831992e-01 7.9114495320799672e-01  0.0000000000000000e+00 3.1834109770917468e-02 4.7080806146391617e-02  0.0000000000000000e+00 2.1354939435306045e-02 9.0864632882028493e-02  0.0000000000000000e+00 2.8114923836004946e-01 9.9508325735086611e-01  0.0000000000000000e+00 7.0869290464463819e-01 5.1870060783281824e-01  0.0000000000000000e+00 1.9348481143498270e-02 4.9365306547151261e-01  0.0000000000000000e+00 2.6316564295701207e-02 6.3092166643994793e-02  0.0000000000000000e+00 1.5361178297424343e-02 2.8948754705880825e-01  0.0000000000000000e+00 7.1531200769764203e-01 5.0831138840752710e-01  0.0000000000000000e+00 6.8407324899461974e-01 5.5668013232123514e-01  0.0000000000000000e+00 4.5025802460313187e-02 7.9569623593922256e-01  0.0000000000000000e+00 4.7141551937377224e-01 8.3768534359833668e-01  0.0000000000000000e+00 2.7067507372920449e-02 6.0329135892683718e-02  0.0000000000000000e+00 1.8918461200227731e-02 1.1637213600538111e-01  0.0000000000000000e+00 1.5330724288249825e-02 2.8137899631594998e-01  0.0000000000000000e+00 6.5661722889035057e-01 5.9779616230319543e-01  0.0000000000000000e+00 1.9936335074630742e-02 5.1001873742762327e-01  0.0000000000000000e+00 4.0197571110383845e-01 9.0796028970746789e-01  0.0000000000000000e+00 1.6359679919030336e-02 1.7216484990816586e-01  0.0000000000