<?xml version="1.0"?>
<VTKFile type="UnstructuredGrid"  version="0.1"  >
<UnstructuredGrid>
<Piece  NumberOfPoints="4940" NumberOfCells="9650">
<Points>
<DataArray  type="Float64"  NumberOfComponents="3"  format="ascii">500 250 0  0 250 0  250 500 0  250 0 0  256.8885856082646 499.9050767557906 0  263.7719401218049 499.6203791065173 0  270.6448364229772 499.1461232471188 0  277.5020553257866 498.4826693209355 0  284.3383895508592 497.6305211460281 0  291.1486476865662 496.5903258312597 0  297.9276581259182 495.3628732847843 0  304.6702729675493 493.9490956196674 0  311.3713719748657 492.3500664368026 0  318.0258664141369 490.5670000199653 0  324.6287029687753 488.6012504015818 0  331.1748675330201 486.4543103455647 0  337.6593890460416 484.1278102064655 0  344.0773432429536 481.6235166997244 0  350.4238564271474 478.9433315480048 0  356.694109139292 476.0892900492477 0  362.88333985546 473.0635595140469 0  368.9868485575419 469.8684376402048 0  375.0000003153078 466.5063507640667 0  380.9182288257928 462.9798520074548 0  386.7370398729688 459.2916193419558 0  392.4520147244077 455.444453565817 0  398.0588135356345 451.4412761437442 0  403.5531785622926 447.285127045646 0  408.9309374414144 442.9791624087773 0  414.1880064015299 438.5266521049243 0  419.3203932989752 433.9309773069245 0  424.324200661095 429.1956279150535 0  429.1956286596235 424.3241998957182 0  433.9309780058756 419.3203925397119 0  438.5266527445345 414.1880056671062 0  442.9791630130591 408.9309367076756 0  447.2851276060475 403.5531778422888 0  451.4412766621026 398.0588128303826 0  455.4444540361634 392.4520140460735 0  459.2916197786263 386.7370392045948 0  462.9798524073514 380.9182281752347 0  466.5063511234856 374.9999996927758 0  469.8684379657123 368.9868479560565 0  473.0635598144817 362.8833392617846 0  476.0892903190255 356.6941085676214 0  478.9433317963513 350.4238558609745 0  481.6235169154735 344.0773427117675 0  484.12781039012 337.6593885555221 0  486.4543105028062 331.1748670749914 0  488.601250531677 324.6287025528375 0  490.5670001317469 318.0258660188321 0  492.3500665291326 311.3713716102628 0  493.949095695951 304.6702726271575 0  495.3628733416623 297.9276578347343 0  496.5903258712341 291.1486474470129 0  497.6305211749058 284.3383893426084 0  498.4826693388848 277.502055163614 0  499.1461232580606 270.6448362909296 0  499.6203791109319 263.7719400417897 0  499.9050767571306 256.8885855596534 0  499.9050767559877 243.1114143988867 0  499.6203791069493 236.2280598860241 0  499.1461232485393 229.3551635941651 0  498.4826693235677 222.4979446979962 0  497.6305211491849 215.6616104719064 0  496.5903258357701 208.8513523404629 0  495.3628732906988 202.0723419043604 0  493.9490956264813 195.3297270628552 0  492.3500664487791 188.6286280724281 0  490.5670000344809 181.9741336371959 0  488.6012504175981 175.3712970824318 0  486.4543103623226 168.8251325157939 0  484.1278102222298 162.3406109960628 0  481.6235167152198 155.9226567951971 0  478.9433315621651 149.5761436051346 0  476.0892900516498 143.3058908657982 0  473.063559513628 137.1166601437124 0  469.8684376406648 131.0131514433083 0  466.5063507675389 124.9999996907064 0  462.9798520124137 119.0817711822745 0  459.2916193464549 113.2629601339176 0  455.4444535642773 107.5479852733717 0  451.4412761528674 101.9411864767781 0  447.2851270583545 96.44682145403524 0  442.9791624165781 91.06906256805769 0  438.5266521117469 85.81199360630404 0  433.9309773156125 80.67960671046254 0  429.1956279150353 75.67579933888632 0  424.3241998888952 70.80437133373906 0  419.3203925223282 66.06902197812161 0  414.1880056411937 61.47334723289828 0  408.9309366751728 57.0208369601728 0  403.5531778009394 52.71487236176898 0  398.058812796452 48.55872331295853 0  392.4520140187753 44.55554594490843 0  386.7370391799677 40.70838020528396 0  380.9182281475119 37.02014757560744 0  374.9999996718656 33.49364886444181 0  368.9868479340393 30.13156202237255 0  362.8833392380029 26.93644017348339 0  356.6941085456942 23.91070967062674 0  350.4238558420009 21.0566681953261 0  344.0773426899492 18.37648307566465 0  337.6593885328982 15.87218960140942 0  331.1748670549786 13.54568949032341 0  324.6287025315056 11.39874946165088 0  318.0258660010876 9.432999863235466 0  311.3713716017894 7.649933468721599 0  304.6702726190621 6.050904302234756 0  297.9276578269805 4.637126656823085 0  291.148647441857 3.409674127905504 0  284.3383893425031 2.369478825079682 0  277.502055159398 1.517330660648639 0  270.6448362875833 0.853876741662134 0  263.7719400401456 0.3796208889774277 0  256.8885855592052 0.09492324285704967 0  243.1114143979462 0.09492324403817065 0  236.2280598850882 0.3796208931023841 0  229.3551635938215 0.8538767514891958 0  222.4979446968584 1.517330676558146 0  215.6616104703111 2.369478851036291 0  208.8513523382973 3.409674164591252 0  202.0723419066374 4.637126708856528 0  195.3297270659513 6.050904372824903 0  188.628628074828 7.649933550613184 0  181.9741336377093 9.432999965373938 0  175.3712970793675 11.39874958336037 0  168.8251325057572 13.54568964112298 0  162.340610986655 15.87218978129263 0  155.9226567874317 18.37648328793418 0  149.576143602509 21.05666843898663 0  143.3058908718157 23.91070994551046 0  137.1166601505524 26.93644048291054 0  131.0131514451933 30.13156235831508 0  124.9999996848412 33.49364923584736 0  119.0817711715717 37.0201479941652 0  113.2629601211624 40.70838066187849 0  107.5479852622251 44.55554644345162 0  101.9411864693332 48.55872385260452 0  96.44682143286516 52.71487295812284 0  91.06906254351222 57.02083760363669 0  85.81199358272519 61.4733479087879 0  80.67960667988106 66.06902271253972 0  75.67579930062769 70.80437212218331 0  70.80437129287643 75.67580015310926 0  66.06902193673014 80.67960752263491 0  61.47334718684866 85.81199441168215 0  57.02083692524275 91.0690633672404 0  52.71487232786438 96.44682224262129 0  48.55872328070024 101.941187247437 0  44.55554591578033 107.5479860232332 0  40.7083801742321 113.2629608675606 0  37.02014754791168 119.0817718975441 0  33.49364883372994 125.000000381329 0  30.13156199866361 131.0131521097709 0  26.9364401549829 137.1166607985551 0  23.91070965524918 143.3058914868915 0  21.05666818346614 149.576144185037 0  18.37648306853811 155.9226573275967 0  15.8721895918909 162.3406114925245 0  13.54568948170046 168.8251329701392 0  11.39874945301878 175.3712974960928 0  9.432999857087736 181.9741340206533 0  7.649933466342702 188.6286284076045 0  6.050904301250966 195.3297273853278 0  4.637126656808988 202.0723421730917 0  3.409674127767772 208.8513525589684 0  2.369478824521138 215.6616106615248 0  1.517330660909465 222.4979448382452 0  0.8538767414496533 229.355163714981 0  0.3796208887135322 236.2280599646376 0  0.09492324266324204 243.1114144478261 0  0.0949232442452228 256.8885856095658 0  0.3796208935834784 263.7719401236316 0  0.8538767530323526 270.6448364248016 0  1.517330679476544 277.5020553295092 0  2.369478854618649 284.3383895555228 0  3.409674170191892 291.1486476952655 0  4.6371267162381 297.9276581311522 0  6.050904381420935 304.6702729724059 0  7.649933562385399 311.3713719716595 0  9.43299997979841 318.0258664133013 0  11.3987495994252 324.6287029719946 0  13.54568965885832 331.174867545904 0  15.87218979367188 337.6593890464085 0  18.37648329843151 344.0773432384132 0  21.05666844777872 350.423856417535 0  23.91070995156048 356.6941091410045 0  26.93644048988043 362.8833398632205 0  30.13156235982007 368.9868485575877 0  33.49364924138357 375.0000003247478 0  37.0201480006036 380.9182288389023 0  40.70838066758398 386.7370398875706 0  44.55554644477201 392.4520147396792 0  48.55872386086904 398.0588135419111 0  52.71487295981296 403.5531785693063 0  57.02083760525949 408.9309374584583 0  61.47334790862246 414.1880064170849 0  66.06902271205095 419.320393319588 0  70.80437211216579 424.3242006890749 0  75.67580013809859 429.195628692521 0  80.6796075127923 433.930978054209 0  85.81199439754931 438.5266528008431 0  91.06906334717917 442.9791630582355 0  96.44682221438322 447.2851276501571 0  101.9411872243843 451.441276702356 0  107.5479859945825 455.4444540643537 0  113.2629608446994 459.2916198108319 0  119.0817718768376 462.9798524393601 0  125.0000003647644 466.5063511567065 0  131.0131521012763 469.8684379967393 0  137.1166607840049 473.0635598376539 0  143.3058914748804 476.0892903390826 0  149.5761441732679 478.9433318113714 0  155.9226573130112 481.6235169255377 0  162.3406114779862 484.1278104026658 0  168.8251329570439 486.4543105138039 0  175.3712974805475 488.601250542119 0  181.9741340135204 490.5670001408953 0  188.6286284005059 492.3500665318597 0  195.3297273788229 493.9490956972913 0  202.0723421640089 495.3628733414168 0  208.8513525529672 496.5903258712308 0  215.6616106544547 497.6305211744985 0  222.4979448327038 498.4826693384772 0  229.3551637102845 499.1461232581612 0  236.2280599621369 499.6203791111485 0  243.1114144470173 499.9050767573145 0  155.2373389820306 474.8197567317462 0  25.36256300907667 153.9152755065208 0  432.3709625126712 412.6214396304305 0  6.013151705810699 246.637913163471 0  246.6379131630491 493.986848294322 0  338.6995838441862 22.68244767887072 0  477.3175523131281 338.6995838660569 0  493.9868482700757 246.6379131399102 0  246.6201155078769 6.218451882810491 0  417.6179310263282 72.7156044707053 0  102.2232990934413 445.0100869616822 0  63.66330858966404 92.20354579482142 0  391.3105220491464 50.73522820883105 0  72.79295043967942 418.0702734974704 0  448.290574428537 108.25674339002 0  402.4604651193511 440.7462829841712 0  97.55317348421397 59.11376320116034 0  136.7376477664901 33.58246472647134 0  363.3288394375288 465.6947312928271 0  44.0678766556007 381.0860953771871 0  469.6905266180034 142.3890690100806 0  22.68244791668644 338.6995843487432 0  338.699584349159 477.317552078365 0  173.389488083762 18.6681884918202 0  483.4809734778481 179.7121987795732 0  13.50237455842738 306.4709525540879 0  305.9825168523021 487.24416992
[...]
<PointData  Vectors="f_12"> 
<DataArray  type="Float64"  Name="f_12"  NumberOfComponents="3" format="ascii">0.0000000000000000e+00 9.1587395122853166e-01 1.5496665552512862e-01  0.0000000000000000e+00 9.4635187589435821e-01 8.0318743768993395e-02  0.0000000000000000e+00 6.0781459513040503e-01 6.6751672681791208e-01  0.0000000000000000e+00 8.8299998528806745e-01 2.3597714837670737e-02  0.0000000000000000e+00 6.0580269839033773e-01 6.7029850092179000e-01  0.0000000000000000e+00 6.0458264317019517e-01 6.7198073427494021e-01  0.0000000000000000e+00 6.0390071322891303e-01 6.7291989367561145e-01  0.0000000000000000e+00 6.0392623286686176e-01 6.7288513347026235e-01  0.0000000000000000e+00 6.0456644793753989e-01 6.7200319099648154e-01  0.0000000000000000e+00 6.0583035812236552e-01 6.7026001558892101e-01  0.0000000000000000e+00 6.0770907660330875e-01 6.6766304739416293e-01  0.0000000000000000e+00 6.1016860464186806e-01 6.6425345346649056e-01  0.0000000000000000e+00 6.1321299758647851e-01 6.6001768331623145e-01  0.0000000000000000e+00 6.1685310625346379e-01 6.5492980596393813e-01  0.0000000000000000e+00 6.2118279322272951e-01 6.4884625312059996e-01  0.0000000000000000e+00 6.2572709479679356e-01 6.4242568870584571e-01  0.0000000000000000e+00 6.3107528585136530e-01 6.3481851210727147e-01  0.0000000000000000e+00 6.3654045661201819e-01 6.2699109152896171e-01  0.0000000000000000e+00 6.4232894277400820e-01 6.1864233127098378e-01  0.0000000000000000e+00 6.4829564091034975e-01 6.0997256047492276e-01  0.0000000000000000e+00 6.5432778559612748e-01 6.0114251013216868e-01  0.0000000000000000e+00 6.6053356168301214e-01 5.9198951427532698e-01  0.0000000000000000e+00 6.6684495318002146e-01 5.8261266280349577e-01  0.0000000000000000e+00 6.7322480952598640e-01 5.7306138058231137e-01  0.0000000000000000e+00 6.7988257047764489e-01 5.6301847382929837e-01  0.0000000000000000e+00 6.8697413916776995e-01 5.5223567830220976e-01  0.0000000000000000e+00 6.9455113101311439e-01 5.4061933265255435e-01  0.0000000000000000e+00 7.0236901357306636e-01 5.2853058975948086e-01  0.0000000000000000e+00 7.1042229262172463e-01 5.1596847613691821e-01  0.0000000000000000e+00 7.1864788991496753e-01 5.0302268231817904e-01  0.0000000000000000e+00 7.2663491974419736e-01 4.9034304205393753e-01  0.0000000000000000e+00 7.3440780442139253e-01 4.7789681196009010e-01  0.0000000000000000e+00 7.4198035571275334e-01 4.6567465263326502e-01  0.0000000000000000e+00 7.4946773141472212e-01 4.5349335546384500e-01  0.0000000000000000e+00 7.5716738389363025e-01 4.4086719569984673e-01  0.0000000000000000e+00 7.6505936944384223e-01 4.2782465245406420e-01  0.0000000000000000e+00 7.7307641164392327e-01 4.1446781198128019e-01  0.0000000000000000e+00 7.8114554256742030e-01 4.0091394086203608e-01  0.0000000000000000e+00 7.8902059481593079e-01 3.8757889761177744e-01  0.0000000000000000e+00 7.9648593594691175e-01 3.7483833421595264e-01  0.0000000000000000e+00 8.0363348304382543e-01 3.6254813949523690e-01  0.0000000000000000e+00 8.1075872002781635e-01 3.5020721590405890e-01  0.0000000000000000e+00 8.1797795783623317e-01 3.3761285976539318e-01  0.0000000000000000e+00 8.2518020408110537e-01 3.2495596317886943e-01  0.0000000000000000e+00 8.3226934445373690e-01 3.1240439243280255e-01  0.0000000000000000e+00 8.3907075320772151e-01 3.0027266814836573e-01  0.0000000000000000e+00 8.4550004778885091e-01 2.8871894694379452e-01  0.0000000000000000e+00 8.5165320173889081e-01 2.7758178082727802e-01  0.0000000000000000e+00 8.5779034916408825e-01 2.6639336107222328e-01  0.0000000000000000e+00 8.6386687687888120e-01 2.5523722168312801e-01  0.0000000000000000e+00 8.6978831195608042e-01 2.4428276403060140e-01  0.0000000000000000e+00 8.7541154794106935e-01 2.3379792802348914e-01  0.0000000000000000e+00 8.8069360438459299e-01 2.2386763608746757e-01  0.0000000000000000e+00 8.8574151750722219e-01 2.1429770662637732e-01  0.0000000000000000e+00 8.9064889934114544e-01 2.0491566976598713e-01  0.0000000000000000e+00 8.9543515900977289e-01 1.9568365118474360e-01  0.0000000000000000e+00 9.0006306595386276e-01 1.8667077766390533e-01  0.0000000000000000e+00 9.0442439672067043e-01 1.7808575246237252e-01  0.0000000000000000e+00 9.0847977169869731e-01 1.7000905990292825e-01  0.0000000000000000e+00 9.1219979903401782e-01 1.6250493334886143e-01  0.0000000000000000e+00 9.1943754265945221e-01 1.4758639315924263e-01  0.0000000000000000e+00 9.2277030117674197e-01 1.4055194850089112e-01  0.0000000000000000e+00 9.2577708364577249e-01 1.3406392322057772e-01  0.0000000000000000e+00 9.2858907549516301e-01 1.2786175248305159e-01  0.0000000000000000e+00 9.3121625364701910e-01 1.2191496603766186e-01  0.0000000000000000e+00 9.3372413529741927e-01 1.1608777553528936e-01  0.0000000000000000e+00 9.3603919685476766e-01 1.1051955621409147e-01  0.0000000000000000e+00 9.3811460496919463e-01 1.0531512799281240e-01  0.0000000000000000e+00 9.3995912435930340e-01 1.0045522172261574e-01  0.0000000000000000e+00 9.4161315276676716e-01 9.5842000971308239e-02  0.0000000000000000e+00 9.4312527985923778e-01 9.1352065115167275e-02  0.0000000000000000e+00 9.4446951751351427e-01 8.7036703121950970e-02  0.0000000000000000e+00 9.4562064370291687e-01 8.2952437729274825e-02  0.0000000000000000e+00 9.4654871987930811e-01 7.9180028708348144e-02  0.0000000000000000e+00 9.4727669700251471e-01 7.5660882330121859e-02  0.0000000000000000e+00 9.4783162942340582e-01 7.2301623257788369e-02  0.0000000000000000e+00 9.4822801687191338e-01 6.9037690398490031e-02  0.0000000000000000e+00 9.4844698530428673e-01 6.5909853521244191e-02  0.0000000000000000e+00 9.4847270481496926e-01 6.2988326137451964e-02  0.0000000000000000e+00 9.4830854392622455e-01 6.0296747884741077e-02  0.0000000000000000e+00 9.4796559187840712e-01 5.7783284653519715e-02  0.0000000000000000e+00 9.4744651531307666e-01 5.5405591182179477e-02  0.0000000000000000e+00 9.4675000695798839e-01 5.3087397303517594e-02  0.0000000000000000e+00 9.4587453072286065e-01 5.0869175332140242e-02  0.0000000000000000e+00 9.4482425131878511e-01 4.8790693663528693e-02  0.0000000000000000e+00 9.4362124178934037e-01 4.6888525641556364e-02  0.0000000000000000e+00 9.4227989100331033e-01 4.5148174106295111e-02  0.0000000000000000e+00 9.4079301155402928e-01 4.3515941579555864e-02  0.0000000000000000e+00 9.3914312103612207e-01 4.1942117565295291e-02  0.0000000000000000e+00 9.3730927873750236e-01 4.0412115711264462e-02  0.0000000000000000e+00 9.3530972753379515e-01 3.8950072624751690e-02  0.0000000000000000e+00 9.3318772472250466e-01 3.7590456079576305e-02  0.0000000000000000e+00 9.3098251327141279e-01 3.6350361843388607e-02  0.0000000000000000e+00 9.2874916980898925e-01 3.5235183101118922e-02  0.0000000000000000e+00 9.2649309782963130e-01 3.4222701029656730e-02  0.0000000000000000e+00 9.2412588615189983e-01 3.3250096965813658e-02  0.0000000000000000e+00 9.2164691405038512e-01 3.2311888854170176e-02  0.0000000000000000e+00 9.1909573907592723e-01 3.1424937345789980e-02  0.0000000000000000e+00 9.1640959748083617e-01 3.0560641857852344e-02  0.0000000000000000e+00 9.1365455991442213e-01 2.9739782823562939e-02  0.0000000000000000e+00 9.1099748545947679e-01 2.9014527947490137e-02  0.0000000000000000e+00 9.0839788228502638e-01 2.8360015334584626e-02  0.0000000000000000e+00 9.0591959980822201e-01 2.7777822829257795e-02  0.0000000000000000e+00 9.0354783136975214e-01 2.7253151799248563e-02  0.0000000000000000e+00 9.0128732729714645e-01 2.6779457883926126e-02  0.0000000000000000e+00 8.9911178666244107e-01 2.6343961239546097e-02  0.0000000000000000e+00 8.9702613852425617e-01 2.5943290629974077e-02  0.0000000000000000e+00 8.9503513446922256e-01 2.5574707594811098e-02  0.0000000000000000e+00 8.9310700258962594e-01 2.5229144473043030e-02  0.0000000000000000e+00 8.9125784274540687e-01 2.4907214059439443e-02  0.0000000000000000e+00 8.8954905433372855e-01 2.4618549639623743e-02  0.0000000000000000e+00 8.8800005142955829e-01 2.4365371342433540e-02  0.0000000000000000e+00 8.8663802298697547e-01 2.4150167109628310e-02  0.0000000000000000e+00 8.8540886936849050e-01 2.3959638296159182e-02  0.0000000000000000e+00 8.8440121497582835e-01 2.3806206696699667e-02  0.0000000000000000e+00 8.8358280705719383e-01 2.3682761974981460e-02  0.0000000000000000e+00 8.8272686182655535e-01 2.3560821850782308e-02  0.0000000000000000e+00 8.8218216683187811e-01 2.3472769163765062e-02  0.0000000000000000e+00 8.8242549943075566e-01 2.3514494439353370e-02  0.0000000000000000e+00 8.8265082594660549e-01 2.3547448186030901e-02  0.0000000000000000e+00 8.8304679705548783e-01 2.3604973403113631e-02  0.0000000000000000e+00 8.8367613053624716e-01 2.3698934007190125e-02  0.0000000000000000e+00 8.8452606250052668e-01 2.3827982848888742e-02  0.0000000000000000e+00 8.8550753104052893e-01 2.3977669340360275e-02  0.0000000000000000e+00 8.8667068186810283e-01 2.4158988946565065e-02  0.0000000000000000e+00 8.8777669752998056e-01 2.4329260729823457e-02  0.0000000000000000e+00 8.8932884728370309e-01 2.4584707024553204e-02  0.0000000000000000e+00 8.9089369954832154e-01 2.4847871645976263e-02  0.0000000000000000e+00 8.9253850358155495e-01 2.5131005777519012e-02  0.0000000000000000e+00 8.9418614042978095e-01 2.5419607359911212e-02  0.0000000000000000e+00 8.9592636857268992e-01 2.5735094303535960e-02  0.0000000000000000e+00 8.9778300575343695e-01 2.6085283498511500e-02  0.0000000000000000e+00 8.9963351874497177e-01 2.6444522064575815e-02  0.0000000000000000e+00 9.0151939845974638e-01 2.6822450789756130e-02  0.0000000000000000e+00 9.0344971272726859e-01 2.7224962917849142e-02  0.0000000000000000e+00 9.0544640634966456e-01 2.7661407313319879e-02  0.0000000000000000e+00 9.0753522391540531e-01 2.8143969734884006e-02  0.0000000000000000e+00 9.0970552128123150e-01 2.8674143265667449e-02  0.0000000000000000e+00 9.1191056687068872e-01 2.9245980282415450e-02  0.0000000000000000e+00 9.1414290306754320e-01 2.9864327114184658e-02  0.0000000000000000e+00 9.1638145306505048e-01 3.0528121646338301e-02  0.0000000000000000e+00 9.1858127263661304e-01 3.1226482490841718e-02  0.0000000000000000e+00 9.2071097009323721e-01 3.1949551109799086e-02  0.0000000000000000e+00 9.2274283701045756e-01 3.2685961186843880e-02  0.0000000000000000e+00 9.2467701132073754e-01 3.3433519343975961e-02  0.0000000000000000e+00 9.2652387452498919e-01 3.4195704015102746e-02  0.0000000000000000e+00 9.2830767385276702e-01 3.4984798342077052e-02  0.0000000000000000e+00 9.3004691799052275e-01 3.5814005419022195e-02  0.0000000000000000e+00 9.3176607617509910e-01 3.6708204808419777e-02  0.0000000000000000e+00 9.3346307607280476e-01 3.7683069069937368e-02  0.0000000000000000e+00 9.3513487078372270e-01 3.8746829336426258e-02  0.0000000000000000e+00 9.3673082348696679e-01 3.9875221194879872e-02  0.0000000000000000e+00 9.3822274872498301e-01 4.1045874518516219e-02  0.0000000000000000e+00 9.3959187203987715e-01 4.2233288185062029e-02  0.0000000000000000e+00 9.4083866362320567e-01 4.3430784883502493e-02  0.0000000000000000e+00 9.4197578227615064e-01 4.4645779470220269e-02  0.0000000000000000e+00 9.4304395291658116e-01 4.5936684368278052e-02  0.0000000000000000e+00 9.4403747913907243e-01 4.7310006145517371e-02  0.0000000000000000e+00 9.4494584676706261e-01 4.8777619579486259e-02  0.0000000000000000e+00 9.4578129906027264e-01 5.0386065196178713e-02  0.0000000000000000e+00 9.4651785065884686e-01 5.2115965103839902e-02  0.0000000000000000e+00 9.4713881966228386e-01 5.3916508679750480e-02  0.0000000000000000e+00 9.4763855583426926e-01 5.5707142005935309e-02  0.0000000000000000e+00 9.4803777381529752e-01 5.7593172206678096e-02  0.0000000000000000e+00 9.4833068579054081e-01 5.9518931738145285e-02  0.0000000000000000e+00 9.4852138295765309e-01 6.1584042739593683e-02  0.0000000000000000e+00 9.4858661343715756e-01 6.3821662944885060e-02  0.0000000000000000e+00 9.4852575468896605e-01 6.6273027543629237e-02  0.0000000000000000e+00 9.4832945127144808e-01 6.8893433076474955e-02  0.0000000000000000e+00 9.4801049309122010e-01 7.1604001962834951e-02  0.0000000000000000e+00 9.4758406375898263e-01 7.4369062221195908e-02  0.0000000000000000e+00 9.4704169594091603e-01 7.7239758815957071e-02  0.0000000000000000e+00 9.4548808371810056e-01 8.3678219444388885e-02  0.0000000000000000e+00 9.4444027802250941e-01 8.7323892357878907e-02  0.0000000000000000e+00 9.4322724944236624e-01 9.1189775690782668e-02  0.0000000000000000e+00 9.4188640028815873e-01 9.5187967880109164e-02  0.0000000000000000e+00 9.4041686042188410e-01 9.9323774156365813e-02  0.0000000000000000e+00 9.3877384347927162e-01 1.0370908407622716e-01  0.0000000000000000e+00 9.3690134471770392e-01 1.0846971065700092e-01  0.0000000000000000e+00 9.3477739418477057e-01 1.1364783903770929e-01  0.0000000000000000e+00 9.3243642042725638e-01 1.1916037689765498e-01  0.0000000000000000e+00 9.2992694951572152e-01 1.2490196908949183e-01  0.0000000000000000e+00 9.2725335326983060e-01 1.3086591305450554e-01  0.0000000000000000e+00 9.2435643426751490e-01 1.3717996898689472e-01  0.0000000000000000e+00 9.2115847743165369e-01 1.4399713183358742e-01  0.0000000000000000e+00 9.1764165048022406e-01 1.5135049490138899e-01  0.0000000000000000e+00 9.1389799422223650e-01 1.5905308782075248e-01  0.0000000000000000e+00 9.0994986183660886e-01 1.6705923344599305e-01  0.0000000000000000e+00 9.0575088599831566e-01 1.7546094948924593e-01  0.0000000000000000e+00 9.0122754835654240e-01 1.8439634643708372e-01  0.0000000000000000e+00 8.9630121439154997e-01 1.9400989477269359e-01  0.0000000000000000e+00 8.9107753110699528e-01 2.0409620325963701e-01  0.0000000000000000e+00 8.8562382070695900e-01 2.1452333725413067e-01  0.0000000000000000e+00 8.7992393758905385e-01 2.2531956874749245e-01  0.0000000000000000e+00 8.7384169998628847e-01 2.3673268640500683e-01  0.0000000000000000e+00 8.6729385881975385e-01 2.4890652248522119e-01  0.0000000000000000e+00 8.6038923026914027e-01 2.6163034535194829e-01  0.0000000000000000e+00 8.5327905456482567e-01 2.7462242971122819e-01  0.0000000000000000e+00 8.4594399805052312e-01 2.8791509570339541e-01  0.0000000000000000e+00 8.3827374951407108e-01 3.0169556263049968e-01  0.0000000000000000e+00 8.3008638680760949e-01 3.1627648028884586e-01  0.0000000000000000e+00 8.2154593633021422e-01 3.3135157795660219e-01  0.0000000000000000e+00 8.1284676200167383e-01 3.4657211119313985e-01  0.0000000000000000e+00 8.0406492428369636e-01 3.6180142482042055e-01  0.0000000000000000e+00 7.9509400989117140e-01 3.7721937994113386e-01  0.0000000000000000e+00 7.8571881630220419e-01 3.9318127524615099e-01  0.0000000000000000e+00 7.7591620286352203e-01 4.0970909980220044e-01  0.0000000000000000e+00 7.6601634071503788e-01 4.2623498276600069e-01  0.0000000000000000e+00 7.5623912431622864e-01 4.4239475921325389e-01  0.0000000000000000e+00 7.4655132405131386e-01 4.5824855566812323e-01  0.0000000000000000e+00 7.3693710077084851e-01 4.7382561948691126e-01  0.0000000000000000e+00 7.2717157861416271e-01 4.8948667544838864e-01  0.0000000000000000e+00 7.1714439829314824e-01 5.0539867338717359e-01  0.0000000000000000e+00 7.0706906392347491e-01 5.2121241289120290e-01  0.0000000000000000e+00 6.9718354649361769e-01 5.3656200013855349e-01  0.0000000000000000e+00 6.8788189685383572e-01 5.5084895902200270e-01  0.0000000000000000e+00 6.7911489627442012e-01 5.6418090001929921e-01  0.0000000000000000e+00 6.7090578480882346e-01 5.7654198549709645e-01  0.0000000000000000e+00 6.6314017746435827e-01 5.8812529049118323e-01  0.0000000000000000e+00 6.5565705686138809e-01 5.9918678162985961e-01  0.0000000000000000e+00 6.4844356099272049e-01 6.0975751079197227e-01  0.0000000000000000e+00 6.4145965749322242e-01 6.1989933122978291e-01  0.0000000000000000e+00 6.3473548784968092e-01 6.2958205136160816e-01  0.0000000000000000e+00 6.2855435027047057e-01 6.3840937030744116e-01  0.0000000000000000e+00 6.2301402362497460e-01 6.4626353685716997e-01  0.0000000000000000e+00 6.1813256408942852e-01 6.5313475943533383e-01  0.0000000000000000e+00 6.1397975954999484e-01 6.5894798855959003e-01  0.0000000000000000e+00 6.1060291685377577e-01 6.6364965854362257e-01  0.0000000000000000e+00 7.0276276870987131e-01 5.2791918873956400e-01  0.0000000000000000e+00 9.4444955027759780e-01 4.7989039680840125e-02  0.0000000000000000e+00 7.5448564161652920e-01 4.4527924953054948e-01  0.0000000000000000e+00 9.4665215496198463e-01 7.8996780616377840e-02  0.0000000000000000e+00 6.1051928775608877e-01 6.6376676814548996e-01  0.0000000000000000e+00 9.0540633713220209e-01 2.7685040331354750e-02  0.0000000000000000e+00 8.4895620577626096e-01 2.8247221241911807e-01  0.0000000000000000e+00 9.1775510396118321e-01 1.5109226959912733e-01  0.0000000000000000e+00 8.8398644392199699e-01 2.3775322768039293e-02  0.0000000000000000e+00 9.3836890162845954e-01 4.1292185427294278e-02  0.0000000000000000e+00 7.9112134730401062e-01 3.8400015554738670e-01  0.0000000000000000e+00 9.2951490373716972e-01 3.5581321018393404e-02  0.0000000000000000e+00 9.2764391342269203e-01 3.4746035227499250e-02  0.0000000000000000e+00 8.4209236805042642e-01 2.9484906757214668e-01  0.0000000000000000e+00 9.4713075243109168e-01 5.4300524139598003e-02  0.0000000000000000e+00 7.0699040655073953e-01 5.2133834117059041e-01  0.0000000000000000e+00 9.1569679246618019e-01 3.0345790232009423e-02  0.0000000000000000e+00 9.0127113716604712e-01 2.6794516628598233e-02  0.0000000000000000e+00 6.5883683182796915e-01 5.9450256443129557e-01  0.0000000000000000e+00 8.8804581669156901e-01 2.0990199803969944e-01  0.0000000000000000e+00 9.4805140743063609e-01 7.0613565654869065e-02  0.0000000000000000e+00 9.1939042983393127e-01 1.4770958022972977e-01  0.0000000000000000e+00 6.3493560102601343e-01 6.2929593097726078e-01  0.0000000000000000e+00 8.9127403903103630e-01 2.4937723285729546e-02  0.0000000000000000e+00 9.4255342249996632e-01 9.3079206278192356e-02  0.0000000000000000e+00 9.3350460972539995e-01 1.1665629375105696e-01  0.0000000000000000e+00 6.1283793510355988e-01 6.6054007045686258e-01  0.0000000000000000e+00 6.5293305312565775e-01 6.0319209039835553e-01  0.0000000000000000e+00 9.4821112226417281e-01 5.8763600589501051e-02  0.0000000000000000e+00 8.9308473603530070e-01 2.5248442817452421e-02  0.0000000000000000e+00 8.8345514038050843e-01 2.1864091028586977e-01  0.0000000000000000e+00 7.9929521296075279e-01 3.7001813972031833e-01  0.0000000000000000e+00 8.8513955236126285e-01 2.3944856423256153e-02  0.0000000000000000e+00 9.3509651363975643e-01 1.1280729973900756e-01  0.0000000000000000e+00 9.4108303082150668e-01 9.7462368285535658e-02  0.0000000000000000e+00 6.0554930136754925e-01 6.7064778123035351e-01  0.0000000000000000e+00 9.1824507090390084e-01 3.1164105966142403e-02  0.0000000000000000e+00 9.3910230538617412e-01 4.1825166656299526e-02  0.0000000000000000e+00 6.2686541799953455e-01 6.4081051280994328e-01  0.0000000000000000e+00 7.4256920762809653e-01 4.6472386150554851e-01  0.0000000000000000e+00 9.4838538850341980e-01 6.8133609377241597e-02  0.0000000000000000e+00 8.8717997329212539e-01 2.4264148372720243e-02  0.0000000000000000e+00 9.0193917830137482e-01 1.8298630273895408e-01  0.0000000000000000e+00 6.8483571562333234e-01 5.5549763572132327e-01  0.0000000000000000e+00 8.6715952959926423e-01 2.4915550110767290e-01  0.0000000000000000e+00 8.8351127662070317e-01 2.3698850070662449e-02  0.0000000000000000e+00 8.9882446848242981e-01 2.6308673802373974e-02  0.0000000000000000e+00 9.2730148737203744e-01 1.3071918937415430e-01  0.0000000000000000e+00 9.4298607418083846e-01 4.6049627607977532e-02  0.0000000000000000e+00 6.7567956272064311e-01 5.6936594246644079e-01  0.0000000000000000e+00 7.7804964224588979e-01 4.0613015899143012e-01  0.0000000000000000e+00 8.6361499402673292e-01 2.5569934566348479e-01  0.0000000000000000e+00 9.0929319659602448e-01 2.8598029235513033e-02  0.0000000000000000e+00 9.0322818636486080e-01 1.8045742888446306e-01  0.0000000000000000e+00 9.4689693585731538e-01 5.3238506197477588e-02  0.0000000000000000e+00 8.2205034856240256e-01 3.3046672886735207e-01  0.0000000000