<?xml version="1.0"?>
<VTKFile type="UnstructuredGrid"  version="0.1"  >
<UnstructuredGrid>
<Piece  NumberOfPoints="4940" NumberOfCells="9650">
<Points>
<DataArray  type="Float64"  NumberOfComponents="3"  format="ascii">500 250 0  0 250 0  250 500 0  250 0 0  256.8885856082646 499.9050767557906 0  263.7719401218049 499.6203791065173 0  270.6448364229772 499.1461232471188 0  277.5020553257866 498.4826693209355 0  284.3383895508592 497.6305211460281 0  291.1486476865662 496.5903258312597 0  297.9276581259182 495.3628732847843 0  304.6702729675493 493.9490956196674 0  311.3713719748657 492.3500664368026 0  318.0258664141369 490.5670000199653 0  324.6287029687753 488.6012504015818 0  331.1748675330201 486.4543103455647 0  337.6593890460416 484.1278102064655 0  344.0773432429536 481.6235166997244 0  350.4238564271474 478.9433315480048 0  356.694109139292 476.0892900492477 0  362.88333985546 473.0635595140469 0  368.9868485575419 469.8684376402048 0  375.0000003153078 466.5063507640667 0  380.9182288257928 462.9798520074548 0  386.7370398729688 459.2916193419558 0  392.4520147244077 455.444453565817 0  398.0588135356345 451.4412761437442 0  403.5531785622926 447.285127045646 0  408.9309374414144 442.9791624087773 0  414.1880064015299 438.5266521049243 0  419.3203932989752 433.9309773069245 0  424.324200661095 429.1956279150535 0  429.1956286596235 424.3241998957182 0  433.9309780058756 419.3203925397119 0  438.5266527445345 414.1880056671062 0  442.9791630130591 408.9309367076756 0  447.2851276060475 403.5531778422888 0  451.4412766621026 398.0588128303826 0  455.4444540361634 392.4520140460735 0  459.2916197786263 386.7370392045948 0  462.9798524073514 380.9182281752347 0  466.5063511234856 374.9999996927758 0  469.8684379657123 368.9868479560565 0  473.0635598144817 362.8833392617846 0  476.0892903190255 356.6941085676214 0  478.9433317963513 350.4238558609745 0  481.6235169154735 344.0773427117675 0  484.12781039012 337.6593885555221 0  486.4543105028062 331.1748670749914 0  488.601250531677 324.6287025528375 0  490.5670001317469 318.0258660188321 0  492.3500665291326 311.3713716102628 0  493.949095695951 304.6702726271575 0  495.3628733416623 297.9276578347343 0  496.5903258712341 291.1486474470129 0  497.6305211749058 284.3383893426084 0  498.4826693388848 277.502055163614 0  499.1461232580606 270.6448362909296 0  499.6203791109319 263.7719400417897 0  499.9050767571306 256.8885855596534 0  499.9050767559877 243.1114143988867 0  499.6203791069493 236.2280598860241 0  499.1461232485393 229.3551635941651 0  498.4826693235677 222.4979446979962 0  497.6305211491849 215.6616104719064 0  496.5903258357701 208.8513523404629 0  495.3628732906988 202.0723419043604 0  493.9490956264813 195.3297270628552 0  492.3500664487791 188.6286280724281 0  490.5670000344809 181.9741336371959 0  488.6012504175981 175.3712970824318 0  486.4543103623226 168.8251325157939 0  484.1278102222298 162.3406109960628 0  481.6235167152198 155.9226567951971 0  478.9433315621651 149.5761436051346 0  476.0892900516498 143.3058908657982 0  473.063559513628 137.1166601437124 0  469.8684376406648 131.0131514433083 0  466.5063507675389 124.9999996907064 0  462.9798520124137 119.0817711822745 0  459.2916193464549 113.2629601339176 0  455.4444535642773 107.5479852733717 0  451.4412761528674 101.9411864767781 0  447.2851270583545 96.44682145403524 0  442.9791624165781 91.06906256805769 0  438.5266521117469 85.81199360630404 0  433.9309773156125 80.67960671046254 0  429.1956279150353 75.67579933888632 0  424.3241998888952 70.80437133373906 0  419.3203925223282 66.06902197812161 0  414.1880056411937 61.47334723289828 0  408.9309366751728 57.0208369601728 0  403.5531778009394 52.71487236176898 0  398.058812796452 48.55872331295853 0  392.4520140187753 44.55554594490843 0  386.7370391799677 40.70838020528396 0  380.9182281475119 37.02014757560744 0  374.9999996718656 33.49364886444181 0  368.9868479340393 30.13156202237255 0  362.8833392380029 26.93644017348339 0  356.6941085456942 23.91070967062674 0  350.4238558420009 21.0566681953261 0  344.0773426899492 18.37648307566465 0  337.6593885328982 15.87218960140942 0  331.1748670549786 13.54568949032341 0  324.6287025315056 11.39874946165088 0  318.0258660010876 9.432999863235466 0  311.3713716017894 7.649933468721599 0  304.6702726190621 6.050904302234756 0  297.9276578269805 4.637126656823085 0  291.148647441857 3.409674127905504 0  284.3383893425031 2.369478825079682 0  277.502055159398 1.517330660648639 0  270.6448362875833 0.853876741662134 0  263.7719400401456 0.3796208889774277 0  256.8885855592052 0.09492324285704967 0  243.1114143979462 0.09492324403817065 0  236.2280598850882 0.3796208931023841 0  229.3551635938215 0.8538767514891958 0  222.4979446968584 1.517330676558146 0  215.6616104703111 2.369478851036291 0  208.8513523382973 3.409674164591252 0  202.0723419066374 4.637126708856528 0  195.3297270659513 6.050904372824903 0  188.628628074828 7.649933550613184 0  181.9741336377093 9.432999965373938 0  175.3712970793675 11.39874958336037 0  168.8251325057572 13.54568964112298 0  162.340610986655 15.87218978129263 0  155.9226567874317 18.37648328793418 0  149.576143602509 21.05666843898663 0  143.3058908718157 23.91070994551046 0  137.1166601505524 26.93644048291054 0  131.0131514451933 30.13156235831508 0  124.9999996848412 33.49364923584736 0  119.0817711715717 37.0201479941652 0  113.2629601211624 40.70838066187849 0  107.5479852622251 44.55554644345162 0  101.9411864693332 48.55872385260452 0  96.44682143286516 52.71487295812284 0  91.06906254351222 57.02083760363669 0  85.81199358272519 61.4733479087879 0  80.67960667988106 66.06902271253972 0  75.67579930062769 70.80437212218331 0  70.80437129287643 75.67580015310926 0  66.06902193673014 80.67960752263491 0  61.47334718684866 85.81199441168215 0  57.02083692524275 91.0690633672404 0  52.71487232786438 96.44682224262129 0  48.55872328070024 101.941187247437 0  44.55554591578033 107.5479860232332 0  40.7083801742321 113.2629608675606 0  37.02014754791168 119.0817718975441 0  33.49364883372994 125.000000381329 0  30.13156199866361 131.0131521097709 0  26.9364401549829 137.1166607985551 0  23.91070965524918 143.3058914868915 0  21.05666818346614 149.576144185037 0  18.37648306853811 155.9226573275967 0  15.8721895918909 162.3406114925245 0  13.54568948170046 168.8251329701392 0  11.39874945301878 175.3712974960928 0  9.432999857087736 181.9741340206533 0  7.649933466342702 188.6286284076045 0  6.050904301250966 195.3297273853278 0  4.637126656808988 202.0723421730917 0  3.409674127767772 208.8513525589684 0  2.369478824521138 215.6616106615248 0  1.517330660909465 222.4979448382452 0  0.8538767414496533 229.355163714981 0  0.3796208887135322 236.2280599646376 0  0.09492324266324204 243.1114144478261 0  0.0949232442452228 256.8885856095658 0  0.3796208935834784 263.7719401236316 0  0.8538767530323526 270.6448364248016 0  1.517330679476544 277.5020553295092 0  2.369478854618649 284.3383895555228 0  3.409674170191892 291.1486476952655 0  4.6371267162381 297.9276581311522 0  6.050904381420935 304.6702729724059 0  7.649933562385399 311.3713719716595 0  9.43299997979841 318.0258664133013 0  11.3987495994252 324.6287029719946 0  13.54568965885832 331.174867545904 0  15.87218979367188 337.6593890464085 0  18.37648329843151 344.0773432384132 0  21.05666844777872 350.423856417535 0  23.91070995156048 356.6941091410045 0  26.93644048988043 362.8833398632205 0  30.13156235982007 368.9868485575877 0  33.49364924138357 375.0000003247478 0  37.0201480006036 380.9182288389023 0  40.70838066758398 386.7370398875706 0  44.55554644477201 392.4520147396792 0  48.55872386086904 398.0588135419111 0  52.71487295981296 403.5531785693063 0  57.02083760525949 408.9309374584583 0  61.47334790862246 414.1880064170849 0  66.06902271205095 419.320393319588 0  70.80437211216579 424.3242006890749 0  75.67580013809859 429.195628692521 0  80.6796075127923 433.930978054209 0  85.81199439754931 438.5266528008431 0  91.06906334717917 442.9791630582355 0  96.44682221438322 447.2851276501571 0  101.9411872243843 451.441276702356 0  107.5479859945825 455.4444540643537 0  113.2629608446994 459.2916198108319 0  119.0817718768376 462.9798524393601 0  125.0000003647644 466.5063511567065 0  131.0131521012763 469.8684379967393 0  137.1166607840049 473.0635598376539 0  143.3058914748804 476.0892903390826 0  149.5761441732679 478.9433318113714 0  155.9226573130112 481.6235169255377 0  162.3406114779862 484.1278104026658 0  168.8251329570439 486.4543105138039 0  175.3712974805475 488.601250542119 0  181.9741340135204 490.5670001408953 0  188.6286284005059 492.3500665318597 0  195.3297273788229 493.9490956972913 0  202.0723421640089 495.3628733414168 0  208.8513525529672 496.5903258712308 0  215.6616106544547 497.6305211744985 0  222.4979448327038 498.4826693384772 0  229.3551637102845 499.1461232581612 0  236.2280599621369 499.6203791111485 0  243.1114144470173 499.9050767573145 0  155.2373389820306 474.8197567317462 0  25.36256300907667 153.9152755065208 0  432.3709625126712 412.6214396304305 0  6.013151705810699 246.637913163471 0  246.6379131630491 493.986848294322 0  338.6995838441862 22.68244767887072 0  477.3175523131281 338.6995838660569 0  493.9868482700757 246.6379131399102 0  246.6201155078769 6.218451882810491 0  417.6179310263282 72.7156044707053 0  102.2232990934413 445.0100869616822 0  63.66330858966404 92.20354579482142 0  391.3105220491464 50.73522820883105 0  72.79295043967942 418.0702734974704 0  448.290574428537 108.25674339002 0  402.4604651193511 440.7462829841712 0  97.55317348421397 59.11376320116034 0  136.7376477664901 33.58246472647134 0  363.3288394375288 465.6947312928271 0  44.0678766556007 381.0860953771871 0  469.6905266180034 142.3890690100806 0  22.68244791668644 338.6995843487432 0  338.699584349159 477.317552078365 0  173.389488083762 18.6681884918202 0  483.4809734778481 179.7121987795732 0  13.50237455842738 306.4709525540879 0  305.9825168523021 487.24416992
[...]
<PointData  Vectors="f_12"> 
<DataArray  type="Float64"  Name="f_12"  NumberOfComponents="3" format="ascii">0.0000000000000000e+00 9.3478805391889419e-01 1.1345923018131800e-01  0.0000000000000000e+00 9.4821749423249413e-01 5.9011949659394110e-02  0.0000000000000000e+00 6.8574442195736118e-01 5.5409440077651573e-01  0.0000000000000000e+00 8.2946315739944476e-01 1.8178817168692463e-02  0.0000000000000000e+00 6.8392644815818038e-01 5.5686431871622943e-01  0.0000000000000000e+00 6.8293517993303121e-01 5.5836928857263046e-01  0.0000000000000000e+00 6.8228123171262123e-01 5.5936169480095521e-01  0.0000000000000000e+00 6.8233896815873507e-01 5.5927531452706569e-01  0.0000000000000000e+00 6.8293764094965470e-01 5.5836584322607885e-01  0.0000000000000000e+00 6.8410985397286184e-01 5.5658354981505553e-01  0.0000000000000000e+00 6.8581237641379955e-01 5.5399046748371839e-01  0.0000000000000000e+00 6.8796227141932831e-01 5.5070902960806023e-01  0.0000000000000000e+00 6.9057632361264554e-01 5.4670911037436021e-01  0.0000000000000000e+00 6.9367002056936156e-01 5.4195829233488435e-01  0.0000000000000000e+00 6.9748844838397306e-01 5.3607218824189162e-01  0.0000000000000000e+00 7.0112947762091204e-01 5.3043957552929677e-01  0.0000000000000000e+00 7.0586476269952070e-01 5.2307506330614384e-01  0.0000000000000000e+00 7.1041711946926533e-01 5.1595942853076870e-01  0.0000000000000000e+00 7.1535735986752047e-01 5.0819915386072256e-01  0.0000000000000000e+00 7.2055176008197708e-01 4.9999418843515492e-01  0.0000000000000000e+00 7.2585851693757053e-01 4.9156301909121175e-01  0.0000000000000000e+00 7.3148494519273943e-01 4.8257086426146351e-01  0.0000000000000000e+00 7.3727710831543802e-01 4.7326117616577990e-01  0.0000000000000000e+00 7.4302097402561196e-01 4.6397049826234071e-01  0.0000000000000000e+00 7.4897615672932438e-01 4.5428090015365791e-01  0.0000000000000000e+00 7.5522319206212551e-01 4.4404989750743312e-01  0.0000000000000000e+00 7.6179252420285393e-01 4.3322145694542313e-01  0.0000000000000000e+00 7.6822388665345376e-01 4.2255062826257017e-01  0.0000000000000000e+00 7.7470917138878836e-01 4.1171850774164531e-01  0.0000000000000000e+00 7.8143213916152010e-01 4.0041405001085512e-01  0.0000000000000000e+00 7.8792937870059532e-01 3.8941689082613201e-01  0.0000000000000000e+00 7.9441108959802775e-01 3.7837041210767547e-01  0.0000000000000000e+00 8.0087405957524138e-01 3.6728614575283125e-01  0.0000000000000000e+00 8.0725268420960306e-01 3.5627415890632957e-01  0.0000000000000000e+00 8.1381034991625778e-01 3.4487681025041028e-01  0.0000000000000000e+00 8.2033648387452762e-01 3.3346144348374429e-01  0.0000000000000000e+00 8.2671171685896427e-01 3.2223539937859291e-01  0.0000000000000000e+00 8.3305219421676990e-01 3.1099427214753700e-01  0.0000000000000000e+00 8.3928383599788980e-01 2.9987056728952333e-01  0.0000000000000000e+00 8.4526084760513365e-01 2.8912927030376073e-01  0.0000000000000000e+00 8.5104309276270884e-01 2.7866864561237059e-01  0.0000000000000000e+00 8.5685189652612970e-01 2.6808945361444958e-01  0.0000000000000000e+00 8.6266139064086300e-01 2.5743722282184428e-01  0.0000000000000000e+00 8.6824049508723178e-01 2.4713329129167794e-01  0.0000000000000000e+00 8.7362292457343249e-01 2.3711768053127041e-01  0.0000000000000000e+00 8.7880756948106320e-01 2.2739677097220581e-01  0.0000000000000000e+00 8.8378842039972305e-01 2.1798368196388820e-01  0.0000000000000000e+00 8.8859157024571145e-01 2.0883288589804522e-01  0.0000000000000000e+00 8.9335955732617611e-01 1.9967114359002316e-01  0.0000000000000000e+00 8.9792534419680514e-01 1.9081910181011272e-01  0.0000000000000000e+00 9.0223383689536574e-01 1.8237734993642427e-01  0.0000000000000000e+00 9.0631977577957257e-01 1.7428411910094835e-01  0.0000000000000000e+00 9.1020454216647484e-01 1.6649631475435930e-01  0.0000000000000000e+00 9.1397373042022745e-01 1.5884486711436330e-01  0.0000000000000000e+00 9.1757222073734657e-01 1.5143699483838188e-01  0.0000000000000000e+00 9.2094070515424242e-01 1.4438737968428669e-01  0.0000000000000000e+00 9.2409763470909800e-01 1.3765461997877979e-01  0.0000000000000000e+00 9.2705160502270034e-01 1.3122123016496015e-01  0.0000000000000000e+00 9.2983622784829245e-01 1.2501980083495054e-01  0.0000000000000000e+00 9.3236898216568742e-01 1.1922527934526254e-01  0.0000000000000000e+00 9.3704253429587780e-01 1.0796118453271185e-01  0.0000000000000000e+00 9.3904671490098679e-01 1.0281819685480757e-01  0.0000000000000000e+00 9.4080807724642190e-01 9.8031075389121744e-02  0.0000000000000000e+00 9.4244089591226476e-01 9.3335913541256574e-02  0.0000000000000000e+00 9.4388335737962681e-01 8.8858024743895453e-02  0.0000000000000000e+00 9.4514406205734391e-01 8.4576703038196185e-02  0.0000000000000000e+00 9.4618013492111641e-01 8.0574723111011617e-02  0.0000000000000000e+00 9.4701080851827679e-01 7.6805452538199023e-02  0.0000000000000000e+00 9.4765514611883817e-01 7.3207475318050524e-02  0.0000000000000000e+00 9.4811037196129877e-01 6.9770072261088126e-02  0.0000000000000000e+00 9.4837165960552083e-01 6.6486716489842293e-02  0.0000000000000000e+00 9.4842123784404642e-01 6.3417012588900798e-02  0.0000000000000000e+00 9.4826261847230875e-01 6.0529139733842940e-02  0.0000000000000000e+00 9.4789766797601072e-01 5.7803840827174560e-02  0.0000000000000000e+00 9.4733078497038692e-01 5.5201981926920003e-02  0.0000000000000000e+00 9.4655611443073540e-01 5.2725933794421899e-02  0.0000000000000000e+00 9.4557190998008500e-01 5.0385715024703896e-02  0.0000000000000000e+00 9.4437605412249659e-01 4.8201061965793129e-02  0.0000000000000000e+00 9.4297119850508837e-01 4.6158724569536555e-02  0.0000000000000000e+00 9.4135748902987981e-01 4.4227361901738170e-02  0.0000000000000000e+00 9.3952207040784053e-01 4.2377451202327866e-02  0.0000000000000000e+00 9.3747694304580120e-01 4.0634492814645248e-02  0.0000000000000000e+00 9.3521984829124938e-01 3.8984539026977058e-02  0.0000000000000000e+00 9.3278134970912119e-01 3.7451906225367759e-02  0.0000000000000000e+00 9.3015850807954914e-01 3.6023719443619526e-02  0.0000000000000000e+00 9.2735167163901422e-01 3.4684218628732805e-02  0.0000000000000000e+00 9.2435158616227064e-01 3.3415991292437559e-02  0.0000000000000000e+00 9.2115506703196248e-01 3.2209067221814797e-02  0.0000000000000000e+00 9.1778332242709337e-01 3.1064791572515765e-02  0.0000000000000000e+00 9.1425919289069491e-01 2.9992521967069277e-02  0.0000000000000000e+00 9.1062363680554625e-01 2.8998800849381556e-02  0.0000000000000000e+00 9.0689748788414759e-01 2.8079165706295893e-02  0.0000000000000000e+00 9.0306303319638526e-01 2.7219687146209731e-02  0.0000000000000000e+00 8.9916238226912848e-01 2.6418369260319798e-02  0.0000000000000000e+00 8.9521106580979781e-01 2.5670467562644711e-02  0.0000000000000000e+00 8.9111000793579043e-01 2.4948484967117567e-02  0.0000000000000000e+00 8.8694782250323068e-01 2.4267351693855067e-02  0.0000000000000000e+00 8.8285120415837248e-01 2.3647267679484631e-02  0.0000000000000000e+00 8.7870875958885153e-01 2.3061249766952539e-02  0.0000000000000000e+00 8.7458103736318227e-01 2.2513514104518361e-02  0.0000000000000000e+00 8.7066439041919341e-01 2.2029667865441083e-02  0.0000000000000000e+00 8.6680956249417673e-01 2.1581958208791593e-02  0.0000000000000000e+00 8.6307700116914754e-01 2.1170449120020508e-02  0.0000000000000000e+00 8.5943925843850311e-01 2.0787770988980582e-02  0.0000000000000000e+00 8.5592908021776903e-01 2.0434678810420066e-02  0.0000000000000000e+00 8.5254114718050045e-01 2.0107350503862465e-02  0.0000000000000000e+00 8.4931747094407417e-01 1.9807543836607374e-02  0.0000000000000000e+00 8.4628869580107979e-01 1.9535641667305363e-02  0.0000000000000000e+00 8.4341599634530728e-01 1.9285531150352531e-02  0.0000000000000000e+00 8.4072331618582308e-01 1.9057233945134987e-02  0.0000000000000000e+00 8.3829376230519081e-01 1.8856903124571171e-02  0.0000000000000000e+00 8.3614675988292264e-01 1.8685326265288633e-02  0.0000000000000000e+00 8.3429978571033647e-01 1.8542381924376360e-02  0.0000000000000000e+00 8.3265292146281467e-01 1.8416790439689339e-02  0.0000000000000000e+00 8.3131563127756236e-01 1.8316092705909698e-02  0.0000000000000000e+00 8.3023139559770909e-01 1.8234767312972446e-02  0.0000000000000000e+00 8.2911220657247120e-01 1.8155182433791314e-02  0.0000000000000000e+00 8.2838358809445611e-01 1.8096396083406387e-02  0.0000000000000000e+00 8.2872424340494766e-01 1.8125368000875691e-02  0.0000000000000000e+00 8.2902974647676064e-01 1.8147711318985345e-02  0.0000000000000000e+00 8.2956072860225116e-01 1.8186226543536996e-02  0.0000000000000000e+00 8.3040425695883013e-01 1.8248990998753628e-02  0.0000000000000000e+00 8.3154750940066413e-01 1.8335220711370018e-02  0.0000000000000000e+00 8.3287501745835035e-01 1.8435535582916777e-02  0.0000000000000000e+00 8.3446451363321739e-01 1.8557909336409863e-02  0.0000000000000000e+00 8.3597897145347200e-01 1.8672421689924709e-02  0.0000000000000000e+00 8.3816251615159232e-01 1.8848722173814513e-02  0.0000000000000000e+00 8.4040619606066025e-01 1.9033400060346078e-02  0.0000000000000000e+00 8.4281304029618132e-01 1.9235744051301351e-02  0.0000000000000000e+00 8.4527191141986879e-01 1.9445527041643946e-02  0.0000000000000000e+00 8.4792734762010025e-01 1.9679801630518374e-02  0.0000000000000000e+00 8.5081335770364130e-01 1.9944519800890414e-02  0.0000000000000000e+00 8.5372814965954746e-01 2.0219318342356445e-02  0.0000000000000000e+00 8.5671918834264360e-01 2.0509924998053968e-02  0.0000000000000000e+00 8.5977563671767254e-01 2.0817862047523266e-02  0.0000000000000000e+00 8.6290512093123095e-01 2.1146286991316505e-02  0.0000000000000000e+00 8.6612769491922215e-01 2.1500197906763999e-02  0.0000000000000000e+00 8.6942338280550702e-01 2.1878591203966201e-02  0.0000000000000000e+00 8.7273181830605362e-01 2.2276456285754968e-02  0.0000000000000000e+00 8.7607039758933736e-01 2.2699221340887785e-02  0.0000000000000000e+00 8.7944961013606537e-01 2.3151209488509707e-02  0.0000000000000000e+00 8.8284653929542778e-01 2.3632197491058972e-02  0.0000000000000000e+00 8.8624664171196732e-01 2.4142753118548872e-02  0.0000000000000000e+00 8.8961688469423361e-01 2.4679793159948334e-02  0.0000000000000000e+00 8.9294050146437509e-01 2.5241968455628851e-02  0.0000000000000000e+00 8.9619404712965012e-01 2.5826416543661593e-02  0.0000000000000000e+00 8.9936670964153331e-01 2.6432056339308799e-02  0.0000000000000000e+00 9.0244379627490567e-01 2.7056570680306726e-02  0.0000000000000000e+00 9.0544565479933969e-01 2.7708084076917612e-02  0.0000000000000000e+00 9.0837986138342341e-01 2.8394070806918782e-02  0.0000000000000000e+00 9.1128223614362025e-01 2.9126695999695008e-02  0.0000000000000000e+00 9.1411702810474504e-01 2.9902420361829204e-02  0.0000000000000000e+00 9.1687621607750835e-01 3.0722529481227168e-02  0.0000000000000000e+00 9.1953892537590076e-01 3.1581378914564660e-02  0.0000000000000000e+00 9.2208993773297432e-01 3.2476363833144034e-02  0.0000000000000000e+00 9.2451277281986854e-01 3.3401302351791728e-02  0.0000000000000000e+00 9.2684975957031157e-01 3.4377071172249321e-02  0.0000000000000000e+00 9.2906057690133170e-01 3.5385908173716028e-02  0.0000000000000000e+00 9.3112749164620312e-01 3.6423341156751360e-02  0.0000000000000000e+00 9.3311804269048615e-01 3.7531071958437398e-02  0.0000000000000000e+00 9.3502246274433953e-01 3.8720306912094216e-02  0.0000000000000000e+00 9.3682188774797814e-01 3.9986482842372405e-02  0.0000000000000000e+00 9.3847230362430156e-01 4.1287203163970672e-02  0.0000000000000000e+00 9.4004265746347349e-01 4.2699389883107841e-02  0.0000000000000000e+00 9.4145877080480711e-01 4.4140012306844945e-02  0.0000000000000000e+00 9.4275570061784930e-01 4.5645481009246633e-02  0.0000000000000000e+00 9.4390947038546891e-01 4.7213829970118429e-02  0.0000000000000000e+00 9.4495780363287307e-01 4.8895671659469342e-02  0.0000000000000000e+00 9.4588282526502654e-01 5.0702759362839453e-02  0.0000000000000000e+00 9.4667211867971490e-01 5.2626256944677700e-02  0.0000000000000000e+00 9.4732454939567845e-01 5.4652214098120322e-02  0.0000000000000000e+00 9.4784055452850269e-01 5.6778202746470163e-02  0.0000000000000000e+00 9.4845535108099965e-01 6.1364423665516053e-02  0.0000000000000000e+00 9.4854497930786064e-01 6.3866964680239474e-02  0.0000000000000000e+00 9.4847504117381820e-01 6.6551625702610973e-02  0.0000000000000000e+00 9.4824724117161352e-01 6.9418619331341816e-02  0.0000000000000000e+00 9.4786144866564570e-01 7.2453664634900466e-02  0.0000000000000000e+00 9.4732071830069930e-01 7.5647222768117944e-02  0.0000000000000000e+00 9.4662108011007040e-01 7.9011233385985327e-02  0.0000000000000000e+00 9.4574662468931703e-01 8.2592984607344169e-02  0.0000000000000000e+00 9.4467806768267737e-01 8.6439237340123917e-02  0.0000000000000000e+00 9.4340706185670364e-01 9.0566645753855646e-02  0.0000000000000000e+00 9.4194696192615890e-01 9.4939996490217532e-02  0.0000000000000000e+00 9.4031566696254254e-01 9.9525172585957569e-02  0.0000000000000000e+00 9.3849698219861610e-01 1.0435603317820570e-01  0.0000000000000000e+00 9.3644880922325091e-01 1.0953129636286361e-01  0.0000000000000000e+00 9.3416671421269770e-01 1.1505833693986550e-01  0.0000000000000000e+00 9.3163829429870026e-01 1.2096177668168943e-01  0.0000000000000000e+00 9.2889673898911540e-01 1.2717569139015569e-01  0.0000000000000000e+00 9.2596174610423410e-01 1.3365992784664729e-01  0.0000000000000000e+00 9.2275563230110058e-01 1.4057228239502750e-01  0.0000000000000000e+00 9.1926696127189855e-01 1.4793836195389634e-01  0.0000000000000000e+00 9.1547840332975661e-01 1.5578750223195156e-01  0.0000000000000000e+00 9.1145019331209387e-01 1.6400155760724267e-01  0.0000000000000000e+00 9.0719698597860032e-01 1.7255291118869404e-01  0.0000000000000000e+00 9.0265100332509773e-01 1.8157078313097291e-01  0.0000000000000000e+00 8.9777008254771173e-01 1.9113243064854524e-01  0.0000000000000000e+00 8.9254610258053357e-01 2.0124905821149974e-01  0.0000000000000000e+00 8.8704019320617644e-01 2.1180391362556819e-01  0.0000000000000000e+00 8.8133254892556601e-01 2.2263955537850702e-01  0.0000000000000000e+00 8.7530836285144153e-01 2.3396957336090043e-01  0.0000000000000000e+00 8.6896505011674741e-01 2.4579165393645527e-01  0.0000000000000000e+00 8.6228076447752788e-01 2.5813956591008108e-01  0.0000000000000000e+00 8.5531754807701932e-01 2.7089288773601200e-01  0.0000000000000000e+00 8.4816997457854615e-01 2.8387625904754948e-01  0.0000000000000000e+00 8.4078755803078875e-01 2.9717537715277204e-01  0.0000000000000000e+00 8.3308492056387640e-01 3.1093552484281456e-01  0.0000000000000000e+00 8.2519389888235395e-01 3.2491469598074735e-01  0.0000000000000000e+00 8.1711797260587626e-01 3.3910134298877653e-01  0.0000000000000000e+00 8.0883189158051216e-01 3.5353633566088988e-01  0.0000000000000000e+00 8.0059237229781754e-01 3.6777110475758751e-01  0.0000000000000000e+00 7.9232195973865582e-01 3.8193908721317682e-01  0.0000000000000000e+00 7.8391438187016083e-01 3.9622100153720374e-01  0.0000000000000000e+00 7.7547937006143186e-01 4.1042695014223479e-01  0.0000000000000000e+00 7.6698819149828024e-01 4.2460642146764155e-01  0.0000000000000000e+00 7.5882419052792194e-01 4.3812293256064822e-01  0.0000000000000000e+00 7.5075764377688392e-01 4.5136977433539227e-01  0.0000000000000000e+00 7.4303468526424565e-01 4.6394918429112691e-01  0.0000000000000000e+00 7.3567068551775150e-01 4.7584730135913145e-01  0.0000000000000000e+00 7.2860363467855438e-01 4.8718134612481367e-01  0.0000000000000000e+00 7.2194766032692148e-01 4.9778181120896975e-01  0.0000000000000000e+00 7.1562388257875886e-01 5.0777795253384073e-01  0.0000000000000000e+00 7.0956608178626179e-01 5.1729193850517252e-01  0.0000000000000000e+00 7.0410607611062026e-01 5.2581260298597510e-01  0.0000000000000000e+00 6.9925671898832054e-01 5.3333941439652033e-01  0.0000000000000000e+00 6.9496038046119368e-01 5.3997050803706637e-01  0.0000000000000000e+00 6.9128815445953118e-01 5.4561695398309462e-01  0.0000000000000000e+00 6.8832475667382376e-01 5.5015416243144111e-01  0.0000000000000000e+00 7.7274327854535618e-01 4.1500913964560876e-01  0.0000000000000000e+00 9.3001669538797294e-01 3.5875880491383953e-02  0.0000000000000000e+00 8.1225258468205797e-01 3.4759403542023304e-01  0.0000000000000000e+00 9.4806281847895724e-01 5.8079614957313543e-02  0.0000000000000000e+00 6.8978941009473760e-01 5.4791467640946445e-01  0.0000000000000000e+00 8.6231717157466969e-01 2.1106260573471466e-02  0.0000000000000000e+00 8.8685815276649471e-01 2.1214284280554280e-01  0.0000000000000000e+00 9.3608285644314715e-01 1.1034952639843422e-01  0.0000000000000000e+00 8.3082220216339386e-01 1.8300029137352028e-02  0.0000000000000000e+00 9.1631754397881970e-01 3.0619543234071747e-02  0.0000000000000000e+00 8.4538259628048640e-01 2.8890959870734734e-01  0.0000000000000000e+00 9.0151606597097733e-01 2.6883417703584163e-02  0.0000000000000000e+00 8.9727167224219484e-01 2.6068259178795197e-02  0.0000000000000000e+00 8.8436780975961993e-01 2.1689020125862127e-01  0.0000000000000000e+00 9.3642945950318435e-01 3.9849152885012035e-02  0.0000000000000000e+00 7.7294808448709607e-01 4.1466863363655054e-01  0.0000000000000000e+00 8.7844173931097824e-01 2.3031197884775478e-02  0.0000000000000000e+00 8.5631713367368978e-01 2.0487744327917397e-02  0.0000000000000000e+00 7.3129301778545763e-01 4.8288706459088732e-01  0.0000000000000000e+00 9.1723697525825854e-01 1.5215866372655104e-01  0.0000000000000000e+00 9.4606868289307788e-01 5.1498360146120414e-02  0.0000000000000000e+00 9.3748285183531588e-01 1.0694852368054551e-01  0.0000000000000000e+00 7.1049687936802319e-01 5.1583758527618562e-01  0.0000000000000000e+00 8.4101574277468694e-01 1.9103408363497783e-02  0.0000000000000000e+00 9.4829774446006221e-01 6.7688595414939240e-02  0.0000000000000000e+00 9.4516886598907945e-01 8.4701099525458803e-02  0.0000000000000000e+00 6.9198424507372802e-01 5.4454914899209894e-01  0.0000000000000000e+00 7.2743377073751347e-01 4.8905449221519354e-01  0.0000000000000000e+00 9.4090390416166703e-01 4.3587805273042346e-02  0.0000000000000000e+00 8.4346148413135213e-01 1.9308039459556791e-02  0.0000000000000000e+00 9.1248828486964351e-01 1.6187291521202732e-01  0.0000000000000000e+00 8.4803546287872267e-01 2.8411711131052075e-01  0.0000000000000000e+00 8.3241200857729858e-01 1.8416510986605742e-02  0.0000000000000000e+00 9.4579561167706250e-01 8.2125993781804810e-02  0.0000000000000000e+00 9.4804044480774963e-01 7.1103095140269079e-02  0.0000000000000000e+00 6.8538640969087472e-01 5.5463977045378032e-01  0.0000000000000000e+00 8.8159051426947577e-01 2.3480063431348598e-02  0.0000000000000000e+00 9.1860437714467991e-01 3.1291902475130536e-02  0.0000000000000000e+00 7.0410193152431433e-01 5.2582078421405687e-01  0.0000000000000000e+00 8.0615286473482684e-01 3.5818253204249845e-01  0.0000000000000000e+00 9.4561795279127991e-01 5.0196422167802963e-02  0.0000000000000000e+00 8.3511811909204392e-01 1.8626284718542743e-02  0.0000000000000000e+00 9.2550995698543514e-01 1.3459435661951050e-01  0.0000000000000000e+00 7.5493821198026445e-01 4.4451980502687954e-01  0.0000000000000000e+00 9.0066530844496528e-01 1.8546123298598141e-01  0.0000000000000000e+00 8.3020282189326666e-01 1.8250275927744614e-02  0.0000000000000000e+00 8.5213521634160461e-01 2.0085997155199948e-02  0.0000000000000000e+00 9.4176561373301670e-01 9.5323592181133107e-02  0.0000000000000000e+00 9.2595124481814206e-01 3.4089209720707933e-02  0.0000000000000000e+00 7.4871383814883030e-01 4.5470543968835558e-01  0.0000000000000000e+00 8.3145940384775119e-01 3.1382775603750490e-01  0.0000000000000000e+00 9.0022921264088129e-01 1.8633050506789475e-01  0.0000000000000000e+00 8.6879328809269396e-01 2.1823040139184333e-02  0.0000000000000000e+00 9.2728555450459649e-01 1.3075539055944213e-01  0.0000000000000000e+00 9.3613992433027648e-01 3.9518911521916077e-02  0.0000000000000000e+00 8.6632008829886631e-01 2.5068807427484024e-01  0.0000000000