<?xml version="1.0"?>
<VTKFile type="UnstructuredGrid"  version="0.1"  >
<UnstructuredGrid>
<Piece  NumberOfPoints="4940" NumberOfCells="9650">
<Points>
<DataArray  type="Float64"  NumberOfComponents="3"  format="ascii">500 250 0  0 250 0  250 500 0  250 0 0  256.8885856082646 499.9050767557906 0  263.7719401218049 499.6203791065173 0  270.6448364229772 499.1461232471188 0  277.5020553257866 498.4826693209355 0  284.3383895508592 497.6305211460281 0  291.1486476865662 496.5903258312597 0  297.9276581259182 495.3628732847843 0  304.6702729675493 493.9490956196674 0  311.3713719748657 492.3500664368026 0  318.0258664141369 490.5670000199653 0  324.6287029687753 488.6012504015818 0  331.1748675330201 486.4543103455647 0  337.6593890460416 484.1278102064655 0  344.0773432429536 481.6235166997244 0  350.4238564271474 478.9433315480048 0  356.694109139292 476.0892900492477 0  362.88333985546 473.0635595140469 0  368.9868485575419 469.8684376402048 0  375.0000003153078 466.5063507640667 0  380.9182288257928 462.9798520074548 0  386.7370398729688 459.2916193419558 0  392.4520147244077 455.444453565817 0  398.0588135356345 451.4412761437442 0  403.5531785622926 447.285127045646 0  408.9309374414144 442.9791624087773 0  414.1880064015299 438.5266521049243 0  419.3203932989752 433.9309773069245 0  424.324200661095 429.1956279150535 0  429.1956286596235 424.3241998957182 0  433.9309780058756 419.3203925397119 0  438.5266527445345 414.1880056671062 0  442.9791630130591 408.9309367076756 0  447.2851276060475 403.5531778422888 0  451.4412766621026 398.0588128303826 0  455.4444540361634 392.4520140460735 0  459.2916197786263 386.7370392045948 0  462.9798524073514 380.9182281752347 0  466.5063511234856 374.9999996927758 0  469.8684379657123 368.9868479560565 0  473.0635598144817 362.8833392617846 0  476.0892903190255 356.6941085676214 0  478.9433317963513 350.4238558609745 0  481.6235169154735 344.0773427117675 0  484.12781039012 337.6593885555221 0  486.4543105028062 331.1748670749914 0  488.601250531677 324.6287025528375 0  490.5670001317469 318.0258660188321 0  492.3500665291326 311.3713716102628 0  493.949095695951 304.6702726271575 0  495.3628733416623 297.9276578347343 0  496.5903258712341 291.1486474470129 0  497.6305211749058 284.3383893426084 0  498.4826693388848 277.502055163614 0  499.1461232580606 270.6448362909296 0  499.6203791109319 263.7719400417897 0  499.9050767571306 256.8885855596534 0  499.9050767559877 243.1114143988867 0  499.6203791069493 236.2280598860241 0  499.1461232485393 229.3551635941651 0  498.4826693235677 222.4979446979962 0  497.6305211491849 215.6616104719064 0  496.5903258357701 208.8513523404629 0  495.3628732906988 202.0723419043604 0  493.9490956264813 195.3297270628552 0  492.3500664487791 188.6286280724281 0  490.5670000344809 181.9741336371959 0  488.6012504175981 175.3712970824318 0  486.4543103623226 168.8251325157939 0  484.1278102222298 162.3406109960628 0  481.6235167152198 155.9226567951971 0  478.9433315621651 149.5761436051346 0  476.0892900516498 143.3058908657982 0  473.063559513628 137.1166601437124 0  469.8684376406648 131.0131514433083 0  466.5063507675389 124.9999996907064 0  462.9798520124137 119.0817711822745 0  459.2916193464549 113.2629601339176 0  455.4444535642773 107.5479852733717 0  451.4412761528674 101.9411864767781 0  447.2851270583545 96.44682145403524 0  442.9791624165781 91.06906256805769 0  438.5266521117469 85.81199360630404 0  433.9309773156125 80.67960671046254 0  429.1956279150353 75.67579933888632 0  424.3241998888952 70.80437133373906 0  419.3203925223282 66.06902197812161 0  414.1880056411937 61.47334723289828 0  408.9309366751728 57.0208369601728 0  403.5531778009394 52.71487236176898 0  398.058812796452 48.55872331295853 0  392.4520140187753 44.55554594490843 0  386.7370391799677 40.70838020528396 0  380.9182281475119 37.02014757560744 0  374.9999996718656 33.49364886444181 0  368.9868479340393 30.13156202237255 0  362.8833392380029 26.93644017348339 0  356.6941085456942 23.91070967062674 0  350.4238558420009 21.0566681953261 0  344.0773426899492 18.37648307566465 0  337.6593885328982 15.87218960140942 0  331.1748670549786 13.54568949032341 0  324.6287025315056 11.39874946165088 0  318.0258660010876 9.432999863235466 0  311.3713716017894 7.649933468721599 0  304.6702726190621 6.050904302234756 0  297.9276578269805 4.637126656823085 0  291.148647441857 3.409674127905504 0  284.3383893425031 2.369478825079682 0  277.502055159398 1.517330660648639 0  270.6448362875833 0.853876741662134 0  263.7719400401456 0.3796208889774277 0  256.8885855592052 0.09492324285704967 0  243.1114143979462 0.09492324403817065 0  236.2280598850882 0.3796208931023841 0  229.3551635938215 0.8538767514891958 0  222.4979446968584 1.517330676558146 0  215.6616104703111 2.369478851036291 0  208.8513523382973 3.409674164591252 0  202.0723419066374 4.637126708856528 0  195.3297270659513 6.050904372824903 0  188.628628074828 7.649933550613184 0  181.9741336377093 9.432999965373938 0  175.3712970793675 11.39874958336037 0  168.8251325057572 13.54568964112298 0  162.340610986655 15.87218978129263 0  155.9226567874317 18.37648328793418 0  149.576143602509 21.05666843898663 0  143.3058908718157 23.91070994551046 0  137.1166601505524 26.93644048291054 0  131.0131514451933 30.13156235831508 0  124.9999996848412 33.49364923584736 0  119.0817711715717 37.0201479941652 0  113.2629601211624 40.70838066187849 0  107.5479852622251 44.55554644345162 0  101.9411864693332 48.55872385260452 0  96.44682143286516 52.71487295812284 0  91.06906254351222 57.02083760363669 0  85.81199358272519 61.4733479087879 0  80.67960667988106 66.06902271253972 0  75.67579930062769 70.80437212218331 0  70.80437129287643 75.67580015310926 0  66.06902193673014 80.67960752263491 0  61.47334718684866 85.81199441168215 0  57.02083692524275 91.0690633672404 0  52.71487232786438 96.44682224262129 0  48.55872328070024 101.941187247437 0  44.55554591578033 107.5479860232332 0  40.7083801742321 113.2629608675606 0  37.02014754791168 119.0817718975441 0  33.49364883372994 125.000000381329 0  30.13156199866361 131.0131521097709 0  26.9364401549829 137.1166607985551 0  23.91070965524918 143.3058914868915 0  21.05666818346614 149.576144185037 0  18.37648306853811 155.9226573275967 0  15.8721895918909 162.3406114925245 0  13.54568948170046 168.8251329701392 0  11.39874945301878 175.3712974960928 0  9.432999857087736 181.9741340206533 0  7.649933466342702 188.6286284076045 0  6.050904301250966 195.3297273853278 0  4.637126656808988 202.0723421730917 0  3.409674127767772 208.8513525589684 0  2.369478824521138 215.6616106615248 0  1.517330660909465 222.4979448382452 0  0.8538767414496533 229.355163714981 0  0.3796208887135322 236.2280599646376 0  0.09492324266324204 243.1114144478261 0  0.0949232442452228 256.8885856095658 0  0.3796208935834784 263.7719401236316 0  0.8538767530323526 270.6448364248016 0  1.517330679476544 277.5020553295092 0  2.369478854618649 284.3383895555228 0  3.409674170191892 291.1486476952655 0  4.6371267162381 297.9276581311522 0  6.050904381420935 304.6702729724059 0  7.649933562385399 311.3713719716595 0  9.43299997979841 318.0258664133013 0  11.3987495994252 324.6287029719946 0  13.54568965885832 331.174867545904 0  15.87218979367188 337.6593890464085 0  18.37648329843151 344.0773432384132 0  21.05666844777872 350.423856417535 0  23.91070995156048 356.6941091410045 0  26.93644048988043 362.8833398632205 0  30.13156235982007 368.9868485575877 0  33.49364924138357 375.0000003247478 0  37.0201480006036 380.9182288389023 0  40.70838066758398 386.7370398875706 0  44.55554644477201 392.4520147396792 0  48.55872386086904 398.0588135419111 0  52.71487295981296 403.5531785693063 0  57.02083760525949 408.9309374584583 0  61.47334790862246 414.1880064170849 0  66.06902271205095 419.320393319588 0  70.80437211216579 424.3242006890749 0  75.67580013809859 429.195628692521 0  80.6796075127923 433.930978054209 0  85.81199439754931 438.5266528008431 0  91.06906334717917 442.9791630582355 0  96.44682221438322 447.2851276501571 0  101.9411872243843 451.441276702356 0  107.5479859945825 455.4444540643537 0  113.2629608446994 459.2916198108319 0  119.0817718768376 462.9798524393601 0  125.0000003647644 466.5063511567065 0  131.0131521012763 469.8684379967393 0  137.1166607840049 473.0635598376539 0  143.3058914748804 476.0892903390826 0  149.5761441732679 478.9433318113714 0  155.9226573130112 481.6235169255377 0  162.3406114779862 484.1278104026658 0  168.8251329570439 486.4543105138039 0  175.3712974805475 488.601250542119 0  181.9741340135204 490.5670001408953 0  188.6286284005059 492.3500665318597 0  195.3297273788229 493.9490956972913 0  202.0723421640089 495.3628733414168 0  208.8513525529672 496.5903258712308 0  215.6616106544547 497.6305211744985 0  222.4979448327038 498.4826693384772 0  229.3551637102845 499.1461232581612 0  236.2280599621369 499.6203791111485 0  243.1114144470173 499.9050767573145 0  155.2373389820306 474.8197567317462 0  25.36256300907667 153.9152755065208 0  432.3709625126712 412.6214396304305 0  6.013151705810699 246.637913163471 0  246.6379131630491 493.986848294322 0  338.6995838441862 22.68244767887072 0  477.3175523131281 338.6995838660569 0  493.9868482700757 246.6379131399102 0  246.6201155078769 6.218451882810491 0  417.6179310263282 72.7156044707053 0  102.2232990934413 445.0100869616822 0  63.66330858966404 92.20354579482142 0  391.3105220491464 50.73522820883105 0  72.79295043967942 418.0702734974704 0  448.290574428537 108.25674339002 0  402.4604651193511 440.7462829841712 0  97.55317348421397 59.11376320116034 0  136.7376477664901 33.58246472647134 0  363.3288394375288 465.6947312928271 0  44.0678766556007 381.0860953771871 0  469.6905266180034 142.3890690100806 0  22.68244791668644 338.6995843487432 0  338.699584349159 477.317552078365 0  173.389488083762 18.6681884918202 0  483.4809734778481 179.7121987795732 0  13.50237455842738 306.4709525540879 0  305.9825168523021 487.24416992
[...]
<PointData  Vectors="f_12"> 
<DataArray  type="Float64"  Name="f_12"  NumberOfComponents="3" format="ascii">0.0000000000000000e+00 8.1631151474977515e-01 3.4052620085376006e-01  0.0000000000000000e+00 9.0304533253831309e-01 1.8086836450681765e-01  0.0000000000000000e+00 2.5268918476028057e-01 1.0067987177732518e+00  0.0000000000000000e+00 9.4664283326319176e-01 5.1871260509549856e-02  0.0000000000000000e+00 2.5003325265342347e-01 1.0076933936787131e+00  0.0000000000000000e+00 2.4840187859726226e-01 1.0082200731501259e+00  0.0000000000000000e+00 2.4751337287178987e-01 1.0085010914757073e+00  0.0000000000000000e+00 2.4753298696159498e-01 1.0084961971427517e+00  0.0000000000000000e+00 2.4836206157249036e-01 1.0082332993772039e+00  0.0000000000000000e+00 2.5001067198088361e-01 1.0076999054041960e+00  0.0000000000000000e+00 2.5248367036597030e-01 1.0068702359614725e+00  0.0000000000000000e+00 2.5576196295607917e-01 1.0057200594395315e+00  0.0000000000000000e+00 2.5986572809379993e-01 1.0042002109566042e+00  0.0000000000000000e+00 2.6482616522692615e-01 1.0022440089285580e+00  0.0000000000000000e+00 2.7074864640197221e-01 9.9974533117844178e-01  0.0000000000000000e+00 2.7711816159584884e-01 9.9687313236671093e-01  0.0000000000000000e+00 2.8458026730908859e-01 9.9325556762185618e-01  0.0000000000000000e+00 2.9235645381988828e-01 9.8921661669379501e-01  0.0000000000000000e+00 3.0064312322339692e-01 9.8462452077618090e-01  0.0000000000000000e+00 3.0925255766095633e-01 9.7954537888890603e-01  0.0000000000000000e+00 3.1804529615518717e-01 9.7404962067414835e-01  0.0000000000000000e+00 3.2715880934589298e-01 9.6803380235898440e-01  0.0000000000000000e+00 3.3652685983936753e-01 9.6153571427538709e-01  0.0000000000000000e+00 3.4616525227512979e-01 9.5451757422803862e-01  0.0000000000000000e+00 3.5638714697690038e-01 9.4672648339068266e-01  0.0000000000000000e+00 3.6747676535927198e-01 9.3788139572144602e-01  0.0000000000000000e+00 3.7956087969000002e-01 9.2779925922054285e-01  0.0000000000000000e+00 3.9238181723509680e-01 9.1661553500782433e-01  0.0000000000000000e+00 4.0591117025331064e-01 9.0429288377728545e-01  0.0000000000000000e+00 4.1997881486089850e-01 8.9092952972670414e-01  0.0000000000000000e+00 4.3390485726481770e-01 8.7717765287642047e-01  0.0000000000000000e+00 4.4760126657041543e-01 8.6315198381979075e-01  0.0000000000000000e+00 4.6101175167365316e-01 8.4897090520075746e-01  0.0000000000000000e+00 4.7433709638763261e-01 8.3444199699835009e-01  0.0000000000000000e+00 4.8809439654334680e-01 8.1900100968493306e-01  0.0000000000000000e+00 5.0237880755567998e-01 8.0251949986584459e-01  0.0000000000000000e+00 5.1720209589577548e-01 7.8493391873130214e-01  0.0000000000000000e+00 5.3245697229269717e-01 7.6633907273400015e-01  0.0000000000000000e+00 5.4765067162850534e-01 7.4733309587155439e-01  0.0000000000000000e+00 5.6225925214361272e-01 7.2861292016947876e-01  0.0000000000000000e+00 5.7630586277270623e-01 7.1020826939508186e-01  0.0000000000000000e+00 5.9025477642274415e-01 6.9155043969377761e-01  0.0000000000000000e+00 6.0440056974626322e-01 6.7224785414252997e-01  0.0000000000000000e+00 6.1874192600116207e-01 6.5229719566355915e-01  0.0000000000000000e+00 6.3317606283130001e-01 6.3183004093587425e-01  0.0000000000000000e+00 6.4730144330828576e-01 6.1143424649443545e-01  0.0000000000000000e+00 6.6079160890982103e-01 5.9161791990664925e-01  0.0000000000000000e+00 6.7368671819880177e-01 5.7237775095421750e-01  0.0000000000000000e+00 6.8647283673593362e-01 5.5300729006447680e-01  0.0000000000000000e+00 6.9922817751366462e-01 5.3340664853083042e-01  0.0000000000000000e+00 7.1193039553857473e-01 5.1360932055738984e-01  0.0000000000000000e+00 7.2425569124855793e-01 4.9413489796675319e-01  0.0000000000000000e+00 7.3598124887621885e-01 4.7537047877023769e-01  0.0000000000000000e+00 7.4714607821821311e-01 4.5728422130671625e-01  0.0000000000000000e+00 7.5795481078738247e-01 4.3957494885957588e-01  0.0000000000000000e+00 7.6860692528406260e-01 4.2193096399933872e-01  0.0000000000000000e+00 7.7913961318212432e-01 4.0429549878832888e-01  0.0000000000000000e+00 7.8930055224013806e-01 3.8710657097222351e-01  0.0000000000000000e+00 7.9883451355890700e-01 3.7081271217637235e-01  0.0000000000000000e+00 8.0761982612109351e-01 3.5566963327999895e-01  0.0000000000000000e+00 8.2485123392545623e-01 3.2553682915670834e-01  0.0000000000000000e+00 8.3311270641123225e-01 3.1090887383438787e-01  0.0000000000000000e+00 8.4080334009352831e-01 2.9717117756563366e-01  0.0000000000000000e+00 8.4806301895796188e-01 2.8409315914936567e-01  0.0000000000000000e+00 8.5492345024197269e-01 2.7163569478493754e-01  0.0000000000000000e+00 8.6160768772698437e-01 2.5940158154729775e-01  0.0000000000000000e+00 8.6806729439500385e-01 2.4748334659175319e-01  0.0000000000000000e+00 8.7417037517049712e-01 2.3612821360002029e-01  0.0000000000000000e+00 8.7984567418584425e-01 2.2547812368057824e-01  0.0000000000000000e+00 8.8513455081024806e-01 2.1546540304574988e-01  0.0000000000000000e+00 8.9019957117501636e-01 2.0579277221027029e-01  0.0000000000000000e+00 8.9507671172721603e-01 1.9639554247855501e-01  0.0000000000000000e+00 8.9974269060521805e-01 1.8731928026733816e-01  0.0000000000000000e+00 9.0406382102392391e-01 1.7882240545460418e-01  0.0000000000000000e+00 9.0803076295887375e-01 1.7093050095163631e-01  0.0000000000000000e+00 9.1171983867657580e-01 1.6350049515428441e-01  0.0000000000000000e+00 9.1524347164672315e-01 1.5631515375762467e-01  0.0000000000000000e+00 9.1861991142599164e-01 1.4933630001156048e-01  0.0000000000000000e+00 9.2178986744645142e-01 1.4268208609809291e-01  0.0000000000000000e+00 9.2468913969849809e-01 1.3648635906729975e-01  0.0000000000000000e+00 9.2732339589357049e-01 1.3074250918951896e-01  0.0000000000000000e+00 9.2971986129290085e-01 1.2539825005861077e-01  0.0000000000000000e+00 9.3199169330357490e-01 1.2021827284636696e-01  0.0000000000000000e+00 9.3413692202433773e-01 1.1520513663052438e-01  0.0000000000000000e+00 9.3613040240929979e-01 1.1041017324636818e-01  0.0000000000000000e+00 9.3791810078332827e-01 1.0595778486573595e-01  0.0000000000000000e+00 9.3948480615023144e-01 1.0189302922938108e-01  0.0000000000000000e+00 9.4086671583782988e-01 9.8143208164297002e-02  0.0000000000000000e+00 9.4211921889682571e-01 9.4584981871841958e-02  0.0000000000000000e+00 9.4327575711139633e-01 9.1129381799223474e-02  0.0000000000000000e+00 9.4433397463840274e-01 8.7779625992191482e-02  0.0000000000000000e+00 9.4527088109634605e-01 8.4597864001834194e-02  0.0000000000000000e+00 9.4606554058870596e-01 8.1650065842592240e-02  0.0000000000000000e+00 9.4670942458318463e-01 7.8996838585479373e-02  0.0000000000000000e+00 9.4721919852327829e-01 7.6620060062101217e-02  0.0000000000000000e+00 9.4763994746280944e-01 7.4383121785845260e-02  0.0000000000000000e+00 9.4798512553210257e-01 7.2252414329370310e-02  0.0000000000000000e+00 9.4825496027681633e-01 7.0236937189528073e-02  0.0000000000000000e+00 9.4846651035570395e-01 6.8249934413304000e-02  0.0000000000000000e+00 9.4861446558505458e-01 6.6327483962886388e-02  0.0000000000000000e+00 9.4868381913421840e-01 6.4595116531870653e-02  0.0000000000000000e+00 9.4868576755599210e-01 6.3011640905842867e-02  0.0000000000000000e+00 9.4863443943314352e-01 6.1603110800978453e-02  0.0000000000000000e+00 9.4854265008252669e-01 6.0344565940977889e-02  0.0000000000000000e+00 9.4842130092915033e-01 5.9224963666668080e-02  0.0000000000000000e+00 9.4827927043394145e-01 5.8211373492898018e-02  0.0000000000000000e+00 9.4812326325234275e-01 5.7290579048975811e-02  0.0000000000000000e+00 9.4795830300476214e-01 5.6449875692675837e-02  0.0000000000000000e+00 9.4778528100540549e-01 5.5663271713473829e-02  0.0000000000000000e+00 9.4760772317176256e-01 5.4929279027918082e-02  0.0000000000000000e+00 9.4743240699251530e-01 5.4267480123168184e-02  0.0000000000000000e+00 9.4726245130023290e-01 5.3682474075582597e-02  0.0000000000000000e+00 9.4710316431134245e-01 5.3179834822051318e-02  0.0000000000000000e+00 9.4695389513644856e-01 5.2731559319982510e-02  0.0000000000000000e+00 9.4682687167216439e-01 5.2368322963964146e-02  0.0000000000000000e+00 9.4672138886980195e-01 5.2075049812816659e-02  0.0000000000000000e+00 9.4660193322198816e-01 5.1780350308590219e-02  0.0000000000000000e+00 9.4653859584061384e-01 5.1574455604725102e-02  0.0000000000000000e+00 9.4656344922084523e-01 5.1669509897496448e-02  0.0000000000000000e+00 9.4659353885843622e-01 5.1747424941910855e-02  0.0000000000000000e+00 9.4664695133341703e-01 5.1883993123826438e-02  0.0000000000000000e+00 9.4672874544946994e-01 5.2105572276368556e-02  0.0000000000000000e+00 9.4683621684690134e-01 5.2409296679662112e-02  0.0000000000000000e+00 9.4695867274420276e-01 5.2760662671092973e-02  0.0000000000000000e+00 9.4709822920075570e-01 5.3183757297741066e-02  0.0000000000000000e+00 9.4723218935080189e-01 5.3580464931119003e-02  0.0000000000000000e+00 9.4740003064788458e-01 5.4167302970805215e-02  0.0000000000000000e+00 9.4756167035793049e-01 5.4767999349418506e-02  0.0000000000000000e+00 9.4772280721669144e-01 5.5410341769019524e-02  0.0000000000000000e+00 9.4787779622996049e-01 5.6063104987406728e-02  0.0000000000000000e+00 9.4802913663857935e-01 5.6775527946751989e-02  0.0000000000000000e+00 9.4817524945227005e-01 5.7568538792430131e-02  0.0000000000000000e+00 9.4830916891290362e-01 5.8386822439885307e-02  0.0000000000000000e+00 9.4843180237627001e-01 5.9256336333703662e-02  0.0000000000000000e+00 9.4853866095437855e-01 6.0193773137143629e-02  0.0000000000000000e+00 9.4862454004234753e-01 6.1222310550054511e-02  0.0000000000000000e+00 9.4868177384444297e-01 6.2369691685153460e-02  0.0000000000000000e+00 9.4870489384108669e-01 6.3635768834472653e-02  0.0000000000000000e+00 9.4868738648886142e-01 6.4998909443927305e-02  0.0000000000000000e+00 9.4862337947046560e-01 6.6459118168945702e-02  0.0000000000000000e+00 9.4851086675071061e-01 6.8003814233859775e-02  0.0000000000000000e+00 9.4835218459032977e-01 6.9601819817343438e-02  0.0000000000000000e+00 9.4815118911911367e-01 7.1232125675928071e-02  0.0000000000000000e+00 9.4791233298107536e-01 7.2878023211144227e-02  0.0000000000000000e+00 9.4763542127484590e-01 7.4549652108915107e-02  0.0000000000000000e+00 9.4731554941860940e-01 7.6270864515743206e-02  0.0000000000000000e+00 9.4694178255136163e-01 7.8082153991250694e-02  0.0000000000000000e+00 9.4650205876105853e-01 8.0017984901938885e-02  0.0000000000000000e+00 9.4597683704077984e-01 8.2127213279015843e-02  0.0000000000000000e+00 9.4535458275828899e-01 8.4423882842821735e-02  0.0000000000000000e+00 9.4463435561100773e-01 8.6901931045289760e-02  0.0000000000000000e+00 9.4383824468861832e-01 8.9483395280113606e-02  0.0000000000000000e+00 9.4298619165989839e-01 9.2113828512051091e-02  0.0000000000000000e+00 9.4209540713737350e-01 9.4753601584532540e-02  0.0000000000000000e+00 9.4116182376028001e-01 9.7419098399587414e-02  0.0000000000000000e+00 9.4016766695183207e-01 1.0015943123338837e-01  0.0000000000000000e+00 9.3905084904682412e-01 1.0312899030118811e-01  0.0000000000000000e+00 9.3780533100561503e-01 1.0633273164307008e-01  0.0000000000000000e+00 9.3642956627930418e-01 1.0976212741991037e-01  0.0000000000000000e+00 9.3489712903987598e-01 1.1347660184725814e-01  0.0000000000000000e+00 9.3324136865773455e-01 1.1739061967839205e-01  0.0000000000000000e+00 9.3151102728354473e-01 1.2139535298901388e-01  0.0000000000000000e+00 9.2976882619162371e-01 1.2535802848607208e-01  0.0000000000000000e+00 9.2788177815692796e-01 1.2957188647325105e-01  0.0000000000000000e+00 9.2588255195194546e-01 1.3396171206624585e-01  0.0000000000000000e+00 9.2367063202551158e-01 1.3873858688979546e-01  0.0000000000000000e+00 9.2123667061380476e-01 1.4390724754693790e-01  0.0000000000000000e+00 9.1857341594809283e-01 1.4948440402117491e-01  0.0000000000000000e+00 9.1575114629339183e-01 1.5531916132009294e-01  0.0000000000000000e+00 9.1283412830064870e-01 1.6128178678031563e-01  0.0000000000000000e+00 9.0981217103836654e-01 1.6739513972892495e-01  0.0000000000000000e+00 9.0658777109141386e-01 1.7385068438390627e-01  0.0000000000000000e+00 8.9915034914996783e-01 1.8850741193457388e-01  0.0000000000000000e+00 8.9496067197422124e-01 1.9664810894520021e-01  0.0000000000000000e+00 8.9057076570109439e-01 2.0510523236874845e-01  0.0000000000000000e+00 8.8602338018356352e-01 2.1379700783213529e-01  0.0000000000000000e+00 8.8123321664559362e-01 2.2288059324548820e-01  0.0000000000000000e+00 8.7603722208163237e-01 2.3265347280321527e-01  0.0000000000000000e+00 8.7034959517431565e-01 2.4326355623622267e-01  0.0000000000000000e+00 8.6422305467692961e-01 2.5460071315358868e-01  0.0000000000000000e+00 8.5779180482716177e-01 2.6640918143811920e-01  0.0000000000000000e+00 8.5109626545997019e-01 2.7860747723809282e-01  0.0000000000000000e+00 8.4402558988040144e-01 2.9138790343642829e-01  0.0000000000000000e+00 8.3641089699115878e-01 3.0503742539189665e-01  0.0000000000000000e+00 8.2819002100014927e-01 3.1964657377624245e-01  0.0000000000000000e+00 8.1944940462577354e-01 3.3504184333285031e-01  0.0000000000000000e+00 8.1038689805230502e-01 3.5086044647913917e-01  0.0000000000000000e+00 8.0090941588842957e-01 3.6724786084640515e-01  0.0000000000000000e+00 7.9080261438660049e-01 3.8455205150604865e-01  0.0000000000000000e+00 7.7999257165015190e-01 4.0286153417243714e-01  0.0000000000000000e+00 7.6851481668474553e-01 4.2208836471557215e-01  0.0000000000000000e+00 7.5663068884276641e-01 4.4175779655182856e-01  0.0000000000000000e+00 7.4434882831676763e-01 4.6183794521609239e-01  0.0000000000000000e+00 7.3146610666463119e-01 4.8262727342403172e-01  0.0000000000000000e+00 7.1775702321533696e-01 5.0443861573159698e-01  0.0000000000000000e+00 7.0330574562276693e-01 5.2708597477031482e-01  0.0000000000000000e+00 6.8844957858570299e-01 5.4999204642113397e-01  0.0000000000000000e+00 6.7337095333581765e-01 5.7285243588502499e-01  0.0000000000000000e+00 6.5779656472194181e-01 5.9605150702206877e-01  0.0000000000000000e+00 6.4152267226605542e-01 6.1982641506702085e-01  0.0000000000000000e+00 6.2446806719944259e-01 6.4423031551111543e-01  0.0000000000000000e+00 6.0715479314227672e-01 6.6845377897296876e-01  0.0000000000000000e+00 5.8990649945847728e-01 6.9202971012017822e-01  0.0000000000000000e+00 5.7263448440060816e-01 7.1506542647961491e-01  0.0000000000000000e+00 5.5500843990946669e-01 7.3796909350407913e-01  0.0000000000000000e+00 5.3679153656968615e-01 7.6097598699613955e-01  0.0000000000000000e+00 5.1822009981166051e-01 7.8371872728216319e-01  0.0000000000000000e+00 4.9999347296914770e-01 8.0531256971150833e-01  0.0000000000000000e+00 4.8242724469898396e-01 8.2542647539401615e-01  0.0000000000000000e+00 4.6527057838107833e-01 8.4438250999225883e-01  0.0000000000000000e+00 4.4833927237541160e-01 8.6239676475213667e-01  0.0000000000000000e+00 4.3131614782703903e-01 8.7978312941222714e-01  0.0000000000000000e+00 4.1418317897000179e-01 8.9651574316547655e-01  0.0000000000000000e+00 3.9742661219271058e-01 9.1209062583590583e-01  0.0000000000000000e+00 3.8150355032340094e-01 9.2615090222966867e-01  0.0000000000000000e+00 3.6692374246607323e-01 9.3833697289634477e-01  0.0000000000000000e+00 3.5355381636873823e-01 9.4892956709647891e-01  0.0000000000000000e+00 3.4128226776907650e-01 9.5812082849949087e-01  0.0000000000000000e+00 3.2985099408378604e-01 9.6620412693006996e-01  0.0000000000000000e+00 3.1898722299015558e-01 9.7344139261267537e-01  0.0000000000000000e+00 3.0863679608606520e-01 9.7992378419926374e-01  0.0000000000000000e+00 2.9874798819285231e-01 9.8570047575656938e-01  0.0000000000000000e+00 2.8935003213757404e-01 9.9081137035476352e-01  0.0000000000000000e+00 2.8078436655712907e-01 9.9512428214770476e-01  0.0000000000000000e+00 2.7316629873823228e-01 9.9867998152697435e-01  0.0000000000000000e+00 2.6651979360551742e-01 1.0015449409584809e+00  0.0000000000000000e+00 2.6090809882341054e-01 1.0038006032553140e+00  0.0000000000000000e+00 2.5637408866198791e-01 1.0054971972993785e+00  0.0000000000000000e+00 3.9013230485241635e-01 9.1862416169703909e-01  0.0000000000000000e+00 9.3717014983793412e-01 1.0791106325722871e-01  0.0000000000000000e+00 4.8302053641076548e-01 8.2476141586484641e-01  0.0000000000000000e+00 9.0458295961276669e-01 1.7782673473822311e-01  0.0000000000000000e+00 2.5590423111707883e-01 1.0056713082482527e+00  0.0000000000000000e+00 9.4859095433758100e-01 6.1374780734846694e-02  0.0000000000000000e+00 6.6783764666415091e-01 5.8114258535942342e-01  0.0000000000000000e+00 8.2071293679828383e-01 3.3282684923244898e-01  0.0000000000000000e+00 9.4673459951714878e-01 5.2275540632849199e-02  0.0000000000000000e+00 9.4261534972965821e-01 9.3106682343068653e-02  0.0000000000000000e+00 5.4707184522429109e-01 7.4807151323025378e-01  0.0000000000000000e+00 9.4661378021473597e-01 7.9473027746957539e-02  0.0000000000000000e+00 9.4695548982911681e-01 7.7834794567494203e-02  0.0000000000000000e+00 6.4946486581414498e-01 6.0828285977275909e-01  0.0000000000000000e+00 9.3080885985096251e-01 1.2292479035587019e-01  0.0000000000000000e+00 3.9977710110155651e-01 9.0996070666631601e-01  0.0000000000000000e+00 9.4852396326522093e-01 6.7571899529327517e-02  0.0000000000000000e+00 9.4839151133193900e-01 5.9199847212073324e-02  0.0000000000000000e+00 3.2431362536897412e-01 9.6996006696800818e-01  0.0000000000000000e+00 7.4974242173610295e-01 4.5304731417787425e-01  0.0000000000000000e+00 9.1354002429387449e-01 1.5979772301670223e-01  0.0000000000000000e+00 8.2375198971845032e-01 3.2748374647109990e-01  0.0000000000000000e+00 2.8970748346102387e-01 9.9062451026238585e-01  0.0000000000000000e+00 9.4757305641780754e-01 5.4966119470970805e-02  0.0000000000000000e+00 8.8823305291571619e-01 2.0955682964668557e-01  0.0000000000000000e+00 8.6071707628535532e-01 2.6104730134211968e-01  0.0000000000000000e+00 2.5894612464852906e-01 1.0045474401903216e+00  0.0000000000000000e+00 3.1473305115947103e-01 9.7616870863638372e-01  0.0000000000000000e+00 9.2667431303124959e-01 1.3222127032421635e-01  0.0000000000000000e+00 9.4775811622196737e-01 5.5701929914995132e-02  0.0000000000000000e+00 7.4195293638721649e-01 4.6572341384703492e-01  0.0000000000000000e+00 5.6755148697317048e-01 7.2172623411641346e-01  0.0000000000000000e+00 9.4688544830774535e-01 5.2672589799183135e-02  0.0000000000000000e+00 8.6536322635356455e-01 2.5248274563412199e-01  0.0000000000000000e+00 8.8341196593882887e-01 2.1875535247246650e-01  0.0000000000000000e+00 2.4930283004802362e-01 1.0079307330799758e+00  0.0000000000000000e+00 9.4830968333572174e-01 6.9628097220520921e-02  0.0000000000000000e+00 9.4239715782611455e-01 9.3844402373131061e-02  0.0000000000000000e+00 2.7809924653753076e-01 9.9641317515195471e-01  0.0000000000000000e+00 4.5795366769363932e-01 8.5227409312108082e-01  0.0000000000000000e+00 9.1657575014481596e-01 1.5361456042186666e-01  0.0000000000000000e+00 9.4713379289189803e-01 5.3429789619522647e-02  0.0000000000000000e+00 7.8338328717941530e-01 3.9713547014713485e-01  0.0000000000000000e+00 3.6364800708117212e-01 9.4098701697877218e-01  0.0000000000000000e+00 7.0605417665469705e-01 5.2280341952917275e-01  0.0000000000000000e+00 9.4667821289213472e-01 5.2094595590607411e-02  0.0000000000000000e+00 9.4823590519999545e-01 5.8132061557872865e-02  0.0000000000000000e+00 8.4465920173626630e-01 2.9024051770477627e-01  0.0000000000000000e+00 9.3868315574366545e-01 1.0398210762952326e-01  0.0000000000000000e+00 3.4808099845012935e-01 9.5308570350833721e-01  0.0000000000000000e+00 5.2621079381185498e-01 7.7402745103992787e-01  0.0000000000000000e+00 6.9522142110507046e-01 5.3960136272900006e-01  0.0000000000000000e+00 9.4867264733738532e-01 6.3450712414399660e-02  0.0000000000000000e+00 7.8471995103669367e-01 3.9488191495233582e-01  0.0000000000000000e+00 9.3216323991001715e-01 1.1988097450433972e-01  0.0000000000000000e+00 6.1224354461378572e-01 6.6138278781073678e-01  0.0000000000