<?xml version="1.0"?>
<VTKFile type="UnstructuredGrid"  version="0.1"  >
<UnstructuredGrid>
<Piece  NumberOfPoints="4940" NumberOfCells="9650">
<Points>
<DataArray  type="Float64"  NumberOfComponents="3"  format="ascii">500 250 0  0 250 0  250 500 0  250 0 0  256.8885856082646 499.9050767557906 0  263.7719401218049 499.6203791065173 0  270.6448364229772 499.1461232471188 0  277.5020553257866 498.4826693209355 0  284.3383895508592 497.6305211460281 0  291.1486476865662 496.5903258312597 0  297.9276581259182 495.3628732847843 0  304.6702729675493 493.9490956196674 0  311.3713719748657 492.3500664368026 0  318.0258664141369 490.5670000199653 0  324.6287029687753 488.6012504015818 0  331.1748675330201 486.4543103455647 0  337.6593890460416 484.1278102064655 0  344.0773432429536 481.6235166997244 0  350.4238564271474 478.9433315480048 0  356.694109139292 476.0892900492477 0  362.88333985546 473.0635595140469 0  368.9868485575419 469.8684376402048 0  375.0000003153078 466.5063507640667 0  380.9182288257928 462.9798520074548 0  386.7370398729688 459.2916193419558 0  392.4520147244077 455.444453565817 0  398.0588135356345 451.4412761437442 0  403.5531785622926 447.285127045646 0  408.9309374414144 442.9791624087773 0  414.1880064015299 438.5266521049243 0  419.3203932989752 433.9309773069245 0  424.324200661095 429.1956279150535 0  429.1956286596235 424.3241998957182 0  433.9309780058756 419.3203925397119 0  438.5266527445345 414.1880056671062 0  442.9791630130591 408.9309367076756 0  447.2851276060475 403.5531778422888 0  451.4412766621026 398.0588128303826 0  455.4444540361634 392.4520140460735 0  459.2916197786263 386.7370392045948 0  462.9798524073514 380.9182281752347 0  466.5063511234856 374.9999996927758 0  469.8684379657123 368.9868479560565 0  473.0635598144817 362.8833392617846 0  476.0892903190255 356.6941085676214 0  478.9433317963513 350.4238558609745 0  481.6235169154735 344.0773427117675 0  484.12781039012 337.6593885555221 0  486.4543105028062 331.1748670749914 0  488.601250531677 324.6287025528375 0  490.5670001317469 318.0258660188321 0  492.3500665291326 311.3713716102628 0  493.949095695951 304.6702726271575 0  495.3628733416623 297.9276578347343 0  496.5903258712341 291.1486474470129 0  497.6305211749058 284.3383893426084 0  498.4826693388848 277.502055163614 0  499.1461232580606 270.6448362909296 0  499.6203791109319 263.7719400417897 0  499.9050767571306 256.8885855596534 0  499.9050767559877 243.1114143988867 0  499.6203791069493 236.2280598860241 0  499.1461232485393 229.3551635941651 0  498.4826693235677 222.4979446979962 0  497.6305211491849 215.6616104719064 0  496.5903258357701 208.8513523404629 0  495.3628732906988 202.0723419043604 0  493.9490956264813 195.3297270628552 0  492.3500664487791 188.6286280724281 0  490.5670000344809 181.9741336371959 0  488.6012504175981 175.3712970824318 0  486.4543103623226 168.8251325157939 0  484.1278102222298 162.3406109960628 0  481.6235167152198 155.9226567951971 0  478.9433315621651 149.5761436051346 0  476.0892900516498 143.3058908657982 0  473.063559513628 137.1166601437124 0  469.8684376406648 131.0131514433083 0  466.5063507675389 124.9999996907064 0  462.9798520124137 119.0817711822745 0  459.2916193464549 113.2629601339176 0  455.4444535642773 107.5479852733717 0  451.4412761528674 101.9411864767781 0  447.2851270583545 96.44682145403524 0  442.9791624165781 91.06906256805769 0  438.5266521117469 85.81199360630404 0  433.9309773156125 80.67960671046254 0  429.1956279150353 75.67579933888632 0  424.3241998888952 70.80437133373906 0  419.3203925223282 66.06902197812161 0  414.1880056411937 61.47334723289828 0  408.9309366751728 57.0208369601728 0  403.5531778009394 52.71487236176898 0  398.058812796452 48.55872331295853 0  392.4520140187753 44.55554594490843 0  386.7370391799677 40.70838020528396 0  380.9182281475119 37.02014757560744 0  374.9999996718656 33.49364886444181 0  368.9868479340393 30.13156202237255 0  362.8833392380029 26.93644017348339 0  356.6941085456942 23.91070967062674 0  350.4238558420009 21.0566681953261 0  344.0773426899492 18.37648307566465 0  337.6593885328982 15.87218960140942 0  331.1748670549786 13.54568949032341 0  324.6287025315056 11.39874946165088 0  318.0258660010876 9.432999863235466 0  311.3713716017894 7.649933468721599 0  304.6702726190621 6.050904302234756 0  297.9276578269805 4.637126656823085 0  291.148647441857 3.409674127905504 0  284.3383893425031 2.369478825079682 0  277.502055159398 1.517330660648639 0  270.6448362875833 0.853876741662134 0  263.7719400401456 0.3796208889774277 0  256.8885855592052 0.09492324285704967 0  243.1114143979462 0.09492324403817065 0  236.2280598850882 0.3796208931023841 0  229.3551635938215 0.8538767514891958 0  222.4979446968584 1.517330676558146 0  215.6616104703111 2.369478851036291 0  208.8513523382973 3.409674164591252 0  202.0723419066374 4.637126708856528 0  195.3297270659513 6.050904372824903 0  188.628628074828 7.649933550613184 0  181.9741336377093 9.432999965373938 0  175.3712970793675 11.39874958336037 0  168.8251325057572 13.54568964112298 0  162.340610986655 15.87218978129263 0  155.9226567874317 18.37648328793418 0  149.576143602509 21.05666843898663 0  143.3058908718157 23.91070994551046 0  137.1166601505524 26.93644048291054 0  131.0131514451933 30.13156235831508 0  124.9999996848412 33.49364923584736 0  119.0817711715717 37.0201479941652 0  113.2629601211624 40.70838066187849 0  107.5479852622251 44.55554644345162 0  101.9411864693332 48.55872385260452 0  96.44682143286516 52.71487295812284 0  91.06906254351222 57.02083760363669 0  85.81199358272519 61.4733479087879 0  80.67960667988106 66.06902271253972 0  75.67579930062769 70.80437212218331 0  70.80437129287643 75.67580015310926 0  66.06902193673014 80.67960752263491 0  61.47334718684866 85.81199441168215 0  57.02083692524275 91.0690633672404 0  52.71487232786438 96.44682224262129 0  48.55872328070024 101.941187247437 0  44.55554591578033 107.5479860232332 0  40.7083801742321 113.2629608675606 0  37.02014754791168 119.0817718975441 0  33.49364883372994 125.000000381329 0  30.13156199866361 131.0131521097709 0  26.9364401549829 137.1166607985551 0  23.91070965524918 143.3058914868915 0  21.05666818346614 149.576144185037 0  18.37648306853811 155.9226573275967 0  15.8721895918909 162.3406114925245 0  13.54568948170046 168.8251329701392 0  11.39874945301878 175.3712974960928 0  9.432999857087736 181.9741340206533 0  7.649933466342702 188.6286284076045 0  6.050904301250966 195.3297273853278 0  4.637126656808988 202.0723421730917 0  3.409674127767772 208.8513525589684 0  2.369478824521138 215.6616106615248 0  1.517330660909465 222.4979448382452 0  0.8538767414496533 229.355163714981 0  0.3796208887135322 236.2280599646376 0  0.09492324266324204 243.1114144478261 0  0.0949232442452228 256.8885856095658 0  0.3796208935834784 263.7719401236316 0  0.8538767530323526 270.6448364248016 0  1.517330679476544 277.5020553295092 0  2.369478854618649 284.3383895555228 0  3.409674170191892 291.1486476952655 0  4.6371267162381 297.9276581311522 0  6.050904381420935 304.6702729724059 0  7.649933562385399 311.3713719716595 0  9.43299997979841 318.0258664133013 0  11.3987495994252 324.6287029719946 0  13.54568965885832 331.174867545904 0  15.87218979367188 337.6593890464085 0  18.37648329843151 344.0773432384132 0  21.05666844777872 350.423856417535 0  23.91070995156048 356.6941091410045 0  26.93644048988043 362.8833398632205 0  30.13156235982007 368.9868485575877 0  33.49364924138357 375.0000003247478 0  37.0201480006036 380.9182288389023 0  40.70838066758398 386.7370398875706 0  44.55554644477201 392.4520147396792 0  48.55872386086904 398.0588135419111 0  52.71487295981296 403.5531785693063 0  57.02083760525949 408.9309374584583 0  61.47334790862246 414.1880064170849 0  66.06902271205095 419.320393319588 0  70.80437211216579 424.3242006890749 0  75.67580013809859 429.195628692521 0  80.6796075127923 433.930978054209 0  85.81199439754931 438.5266528008431 0  91.06906334717917 442.9791630582355 0  96.44682221438322 447.2851276501571 0  101.9411872243843 451.441276702356 0  107.5479859945825 455.4444540643537 0  113.2629608446994 459.2916198108319 0  119.0817718768376 462.9798524393601 0  125.0000003647644 466.5063511567065 0  131.0131521012763 469.8684379967393 0  137.1166607840049 473.0635598376539 0  143.3058914748804 476.0892903390826 0  149.5761441732679 478.9433318113714 0  155.9226573130112 481.6235169255377 0  162.3406114779862 484.1278104026658 0  168.8251329570439 486.4543105138039 0  175.3712974805475 488.601250542119 0  181.9741340135204 490.5670001408953 0  188.6286284005059 492.3500665318597 0  195.3297273788229 493.9490956972913 0  202.0723421640089 495.3628733414168 0  208.8513525529672 496.5903258712308 0  215.6616106544547 497.6305211744985 0  222.4979448327038 498.4826693384772 0  229.3551637102845 499.1461232581612 0  236.2280599621369 499.6203791111485 0  243.1114144470173 499.9050767573145 0  155.2373389820306 474.8197567317462 0  25.36256300907667 153.9152755065208 0  432.3709625126712 412.6214396304305 0  6.013151705810699 246.637913163471 0  246.6379131630491 493.986848294322 0  338.6995838441862 22.68244767887072 0  477.3175523131281 338.6995838660569 0  493.9868482700757 246.6379131399102 0  246.6201155078769 6.218451882810491 0  417.6179310263282 72.7156044707053 0  102.2232990934413 445.0100869616822 0  63.66330858966404 92.20354579482142 0  391.3105220491464 50.73522820883105 0  72.79295043967942 418.0702734974704 0  448.290574428537 108.25674339002 0  402.4604651193511 440.7462829841712 0  97.55317348421397 59.11376320116034 0  136.7376477664901 33.58246472647134 0  363.3288394375288 465.6947312928271 0  44.0678766556007 381.0860953771871 0  469.6905266180034 142.3890690100806 0  22.68244791668644 338.6995843487432 0  338.699584349159 477.317552078365 0  173.389488083762 18.6681884918202 0  483.4809734778481 179.7121987795732 0  13.50237455842738 306.4709525540879 0  305.9825168523021 487.24416992
[...]
<PointData  Vectors="f_12"> 
<DataArray  type="Float64"  Name="f_12"  NumberOfComponents="3" format="ascii">0.0000000000000000e+00 8.8694669100268964e-01 2.4488275226843575e-02  0.0000000000000000e+00 7.3842727358540794e-01 1.3664422591689296e-02  0.0000000000000000e+00 9.3102103443673490e-01 1.2240106299039871e-01  0.0000000000000000e+00 3.1262387330393437e-01 7.5758487745370149e-03  0.0000000000000000e+00 9.3072248373245947e-01 1.2308443582288792e-01  0.0000000000000000e+00 9.3054310568496745e-01 1.2349358475643142e-01  0.0000000000000000e+00 9.3044090106691113e-01 1.2372672732053745e-01  0.0000000000000000e+00 9.3044526268141770e-01 1.2371646253939525e-01  0.0000000000000000e+00 9.3054133011143947e-01 1.2349750376929423e-01  0.0000000000000000e+00 9.3073090994033414e-01 1.2306538505195608e-01  0.0000000000000000e+00 9.3101094806840712e-01 1.2242557605207748e-01  0.0000000000000000e+00 9.3137392893469961e-01 1.2159334051274473e-01  0.0000000000000000e+00 9.3181938061600622e-01 1.2056756988519045e-01  0.0000000000000000e+00 9.3234742691247463e-01 1.1934473846176821e-01  0.0000000000000000e+00 9.3297324198816189e-01 1.1788556175947136e-01  0.0000000000000000e+00 9.3361752825725119e-01 1.1637324558689574e-01  0.0000000000000000e+00 9.3437516667532827e-01 1.1457511125657356e-01  0.0000000000000000e+00 9.3513343438946772e-01 1.1275449707963137e-01  0.0000000000000000e+00 9.3592820429816126e-01 1.1082184958829153e-01  0.0000000000000000e+00 9.3673766089406518e-01 1.0882556831140834e-01  0.0000000000000000e+00 9.3754093778416425e-01 1.0680943253871458e-01  0.0000000000000000e+00 9.3834979398350238e-01 1.0473504381127506e-01  0.0000000000000000e+00 9.3915415820967452e-01 1.0262749905547085e-01  0.0000000000000000e+00 9.3994399791556693e-01 1.0050874982375153e-01  0.0000000000000000e+00 9.4074350352213509e-01 9.8307589089417807e-02  0.0000000000000000e+00 9.4156555374931927e-01 9.5975799591392089e-02  0.0000000000000000e+00 9.4241221897793204e-01 9.3496892389116917e-02  0.0000000000000000e+00 9.4324403522121825e-01 9.0967131543731122e-02  0.0000000000000000e+00 9.4405532181275020e-01 8.8381891724170478e-02  0.0000000000000000e+00 9.4483683582812406e-01 8.5747793127827501e-02  0.0000000000000000e+00 9.4553913753541075e-01 8.3204163076124368e-02  0.0000000000000000e+00 9.4616281573678562e-01 8.0730938600230631e-02  0.0000000000000000e+00 9.4670976437313703e-01 7.8318194592281190e-02  0.0000000000000000e+00 9.4718672462448128e-01 7.5931335081689602e-02  0.0000000000000000e+00 9.4760538741661682e-01 7.3476226452086707e-02  0.0000000000000000e+00 9.4795472811253034e-01 7.0971675615943378e-02  0.0000000000000000e+00 9.4821972741488447e-01 6.8446447464803453e-02  0.0000000000000000e+00 9.4837590377393644e-01 6.5924986948446673e-02  0.0000000000000000e+00 9.4839821207578512e-01 6.3480577772117588e-02  0.0000000000000000e+00 9.4828081572352607e-01 6.1170432520461476e-02  0.0000000000000000e+00 9.4802267845291943e-01 5.8955917055980619e-02  0.0000000000000000e+00 9.4761247994696551e-01 5.6737637413756044e-02  0.0000000000000000e+00 9.4703353245211352e-01 5.4485326690011437e-02  0.0000000000000000e+00 9.4626620070256084e-01 5.2256449786354971e-02  0.0000000000000000e+00 9.4529228352955852e-01 5.0082836540019354e-02  0.0000000000000000e+00 9.4411184125143821e-01 4.8008622699415172e-02  0.0000000000000000e+00 9.4271508301793283e-01 4.6048839010777637e-02  0.0000000000000000e+00 9.4107985740952427e-01 4.4166725511485844e-02  0.0000000000000000e+00 9.3913481460587755e-01 4.2276418629948340e-02  0.0000000000000000e+00 9.3688539969386364e-01 4.0409269077062340e-02  0.0000000000000000e+00 9.3431261745611394e-01 3.8607315302901346e-02  0.0000000000000000e+00 9.3144262229941965e-01 3.6905340839357495e-02  0.0000000000000000e+00 9.2825903432607892e-01 3.5306839277310639e-02  0.0000000000000000e+00 9.2469050947796061e-01 3.3764662736155769e-02  0.0000000000000000e+00 9.2068244802294519e-01 3.2254364545592849e-02  0.0000000000000000e+00 9.1621039360658818e-01 3.0785267142550390e-02  0.0000000000000000e+00 9.1126414835662650e-01 2.9371880678094483e-02  0.0000000000000000e+00 9.0590624077116000e-01 2.8043446060756833e-02  0.0000000000000000e+00 9.0013559507286778e-01 2.6790684157391359e-02  0.0000000000000000e+00 8.9403280243304484e-01 2.5640086461618548e-02  0.0000000000000000e+00 8.7946483237207163e-01 2.3357392908190187e-02  0.0000000000000000e+00 8.7142350434217208e-01 2.2303084037961010e-02  0.0000000000000000e+00 8.6300938142680161e-01 2.1346313020821003e-02  0.0000000000000000e+00 8.5397104526483603e-01 2.0424749765161936e-02  0.0000000000000000e+00 8.4430537864409361e-01 1.9547662185540514e-02  0.0000000000000000e+00 8.3388827634215124e-01 1.8689432668350114e-02  0.0000000000000000e+00 8.2292999077353279e-01 1.7885955995930871e-02  0.0000000000000000e+00 8.1157519379186371e-01 1.7145254591908583e-02  0.0000000000000000e+00 7.9980573386590581e-01 1.6457313582721407e-02  0.0000000000000000e+00 7.8746188571696496e-01 1.5804828075563753e-02  0.0000000000000000e+00 7.7437599391130107e-01 1.5170539627487696e-02  0.0000000000000000e+00 7.6080135971975826e-01 1.4571430923835482e-02  0.0000000000000000e+00 7.4689430701330073e-01 1.4014764499516599e-02  0.0000000000000000e+00 7.3287367181135021e-01 1.3507864108952113e-02  0.0000000000000000e+00 7.1860115872673536e-01 1.3036452658032185e-02  0.0000000000000000e+00 7.0387805239352730e-01 1.2587637836219591e-02  0.0000000000000000e+00 6.8865140005745007e-01 1.2154796832569389e-02  0.0000000000000000e+00 6.7319323765573780e-01 1.1748796298440788e-02  0.0000000000000000e+00 6.5783605586933347e-01 1.1378796657424623e-02  0.0000000000000000e+00 6.4269927689260509e-01 1.1043661370872645e-02  0.0000000000000000e+00 6.2755833614091017e-01 1.0732386619955452e-02  0.0000000000000000e+00 6.1233024846318174e-01 1.0439957955959136e-02  0.0000000000000000e+00 5.9681983494603075e-01 1.0158389535114604e-02  0.0000000000000000e+00 5.8140598085774808e-01 9.8954017504612017e-03  0.0000000000000000e+00 5.6636253720058383e-01 9.6566913333035621e-03  0.0000000000000000e+00 5.5190502142894682e-01 9.4445896919246892e-03  0.0000000000000000e+00 5.3793992833358739e-01 9.2544148700517363e-03  0.0000000000000000e+00 5.2419367267464767e-01 9.0784196939666540e-03  0.0000000000000000e+00 5.1047846643287031e-01 8.9100475471632357e-03  0.0000000000000000e+00 4.9681379399883618e-01 8.7508908001324853e-03  0.0000000000000000e+00 4.8348023808426005e-01 8.6042618033699662e-03  0.0000000000000000e+00 4.7077386233914520e-01 8.4742059921155983e-03  0.0000000000000000e+00 4.5879728160720989e-01 8.3614114102948597e-03  0.0000000000000000e+00 4.4761083872050728e-01 8.2640146223593343e-03  0.0000000000000000e+00 4.3707002957281460e-01 8.1785223835791707e-03  0.0000000000000000e+00 4.2667693966932041e-01 8.0976644328264961e-03  0.0000000000000000e+00 4.1647478384027337e-01 8.0222216213458042e-03  0.0000000000000000e+00 4.0670568862113776e-01 7.9544750033446309e-03  0.0000000000000000e+00 3.9713685356575545e-01 7.8912195506282267e-03  0.0000000000000000e+00 3.8798242268766214e-01 7.8352178893525276e-03  0.0000000000000000e+00 3.7975811547820237e-01 7.7898954614972352e-03  0.0000000000000000e+00 3.7217323210085035e-01 7.7536576516412988e-03  0.0000000000000000e+00 3.6527577860310595e-01 7.7233592305004962e-03  0.0000000000000000e+00 3.5892405090192125e-01 7.6983089544427393e-03  0.0000000000000000e+00 3.5307538422993201e-01 7.6770356273784474e-03  0.0000000000000000e+00 3.4762057720883144e-01 7.6587096333421778e-03  0.0000000000000000e+00 3.4255102742289611e-01 7.6428075223704366e-03  0.0000000000000000e+00 3.3786108200208231e-01 7.6291263525367168e-03  0.0000000000000000e+00 3.3345855755157894e-01 7.6169997369141288e-03  0.0000000000000000e+00 3.2936323562960218e-01 7.6060347354704443e-03  0.0000000000000000e+00 3.2568968532770282e-01 7.5970916267121468e-03  0.0000000000000000e+00 3.2246236115051158e-01 7.5902059763839954e-03  0.0000000000000000e+00 3.1970227926855366e-01 7.5857053445077503e-03  0.0000000000000000e+00 3.1726199566966773e-01 7.5820437711675032e-03  0.0000000000000000e+00 3.1530092161032036e-01 7.5792348522858754e-03  0.0000000000000000e+00 3.1372667571284085e-01 7.5769618807259567e-03  0.0000000000000000e+00 3.1212606521312936e-01 7.5763230429255896e-03  0.0000000000000000e+00 3.1106074390974647e-01 7.5726244773913331e-03  0.0000000000000000e+00 3.1155291675176677e-01 7.5749781716585342e-03  0.0000000000000000e+00 3.1197876668857827e-01 7.5753621871263747e-03  0.0000000000000000e+00 3.1272754214668186e-01 7.5759663117282005e-03  0.0000000000000000e+00 3.1393248681503533e-01 7.5778334354226424e-03  0.0000000000000000e+00 3.1557990879630271e-01 7.5804038630489685e-03  0.0000000000000000e+00 3.1750450780669792e-01 7.5832529952561296e-03  0.0000000000000000e+00 3.1982945700772053e-01 7.5870907014406325e-03  0.0000000000000000e+00 3.2205366392646201e-01 7.5898085128418445e-03  0.0000000000000000e+00 3.2530160968418281e-01 7.5971885681093785e-03  0.0000000000000000e+00 3.2865988896861054e-01 7.6050923600562365e-03  0.0000000000000000e+00 3.3228187802382103e-01 7.6144380460652483e-03  0.0000000000000000e+00 3.3600024968594028e-01 7.6233367190755357e-03  0.0000000000000000e+00 3.4004879956217121e-01 7.6343121163861731e-03  0.0000000000000000e+00 3.4450262199770310e-01 7.6482439443572477e-03  0.0000000000000000e+00 3.4906495287604172e-01 7.6628371878294304e-03  0.0000000000000000e+00 3.5384064716448932e-01 7.6784972809513579e-03  0.0000000000000000e+00 3.5886620566480493e-01 7.6961009977005853e-03  0.0000000000000000e+00 3.6421874558653006e-01 7.7167825318139299e-03  0.0000000000000000e+00 3.7001482970405741e-01 7.7416561518203241e-03  0.0000000000000000e+00 3.7626240743188771e-01 7.7709075655233066e-03  0.0000000000000000e+00 3.8288570673494660e-01 7.8043462371591883e-03  0.0000000000000000e+00 3.8993228840998212e-01 7.8433154416642347e-03  0.0000000000000000e+00 3.9740179181705648e-01 7.8881748553175316e-03  0.0000000000000000e+00 4.0519297969398388e-01 7.9384131808028432e-03  0.0000000000000000e+00 4.1320978140693149e-01 7.9931963282321907e-03  0.0000000000000000e+00 4.2132760800494989e-01 8.0514139649573140e-03  0.0000000000000000e+00 4.2950069520232570e-01 8.1123555077002169e-03  0.0000000000000000e+00 4.3772026591637336e-01 8.1759947022525450e-03  0.0000000000000000e+00 4.4605920717299002e-01 8.2431380628837665e-03  0.0000000000000000e+00 4.5460076922120618e-01 8.3148627800600956e-03  0.0000000000000000e+00 4.6352490453440570e-01 8.3941930997728266e-03  0.0000000000000000e+00 4.7294120686630781e-01 8.4840106679572314e-03  0.0000000000000000e+00 4.8294051610622685e-01 8.5856776557169147e-03  0.0000000000000000e+00 4.9332669176004768e-01 8.6976933505395794e-03  0.0000000000000000e+00 5.0392801590248515e-01 8.8180374988038098e-03  0.0000000000000000e+00 5.1453576516313870e-01 8.9431728143340473e-03  0.0000000000000000e+00 5.2504168124949047e-01 9.0716843837558171e-03  0.0000000000000000e+00 5.3542905036266986e-01 9.2038058617433562e-03  0.0000000000000000e+00 5.4606475050579462e-01 9.3449181894748930e-03  0.0000000000000000e+00 5.5691607209056215e-01 9.4963207841236782e-03  0.0000000000000000e+00 5.6802382339147073e-01 9.6605174585051891e-03  0.0000000000000000e+00 5.7972756418479465e-01 9.8438614605162508e-03  0.0000000000000000e+00 5.9188725793695152e-01 1.0047534954790086e-02  0.0000000000000000e+00 6.0417721476423059e-01 1.0264723796751359e-02  0.0000000000000000e+00 6.1608523809355753e-01 1.0483892459756072e-02  0.0000000000000000e+00 6.2814350191545310e-01 1.0717596804571933e-02  0.0000000000000000e+00 6.3991040474768512e-01 1.0955875547464957e-02  0.0000000000000000e+00 6.5183464666395619e-01 1.1210313910596022e-02  0.0000000000000000e+00 6.6397963013698180e-01 1.1490657971498659e-02  0.0000000000000000e+00 6.7659353000356071e-01 1.1801316634283514e-02  0.0000000000000000e+00 6.8944440743590829e-01 1.2142383433892746e-02  0.0000000000000000e+00 7.0213320943242918e-01 1.2501672683029649e-02  0.0000000000000000e+00 7.1445416942625850e-01 1.2870890138510812e-02  0.0000000000000000e+00 7.2647365868518332e-01 1.3253784563373363e-02  0.0000000000000000e+00 7.5049474852460785e-01 1.4114109356700915e-02  0.0000000000000000e+00 7.6264978415038998e-01 1.4609420662178099e-02  0.0000000000000000e+00 7.7469276911578167e-01 1.5146266777005616e-02  0.0000000000000000e+00 7.8635584193687913e-01 1.5707733295237690e-02  0.0000000000000000e+00 7.9753406046341735e-01 1.6290606023716823e-02  0.0000000000000000e+00 8.0834436912776830e-01 1.6906000923624112e-02  0.0000000000000000e+00 8.1896425690602725e-01 1.7575118009278669e-02  0.0000000000000000e+00 8.2944721622124418e-01 1.8311588112130284e-02  0.0000000000000000e+00 8.3964345517930805e-01 1.9110080462094916e-02  0.0000000000000000e+00 8.4933778711022634e-01 1.9952377669067604e-02  0.0000000000000000e+00 8.5844468476128044e-01 2.0829693539511852e-02  0.0000000000000000e+00 8.6705308527344993e-01 2.1753571611084429e-02  0.0000000000000000e+00 8.7528213103308827e-01 2.2755947617937110e-02  0.0000000000000000e+00 8.8317215171702979e-01 2.3853511065006158e-02  0.0000000000000000e+00 8.9056929215447689e-01 2.5020713728668809e-02  0.0000000000000000e+00 8.9740395133716933e-01 2.6244330816736005e-02  0.0000000000000000e+00 9.0370352560526568e-01 2.7527037993473547e-02  0.0000000000000000e+00 9.0952026881364079e-01 2.8890057251140359e-02  0.0000000000000000e+00 9.1494051506043728e-01 3.0379262868452460e-02  0.0000000000000000e+00 9.1990494566088199e-01 3.1963972565683244e-02  0.0000000000000000e+00 9.2437255075473934e-01 3.3622902108311925e-02  0.0000000000000000e+00 9.2835011965986691e-01 3.5342776849061015e-02  0.0000000000000000e+00 9.3190929370409914e-01 3.7162569055777799e-02  0.0000000000000000e+00 9.3509418469546002e-01 3.9128240822080204e-02  0.0000000000000000e+00 9.3789401156054064e-01 4.1220324717719144e-02  0.0000000000000000e+00 9.4029736934404340e-01 4.3389155855997341e-02  0.0000000000000000e+00 9.4233603668261079e-01 4.5618461852699417e-02  0.0000000000000000e+00 9.4402883617052236e-01 4.7935594856735202e-02  0.0000000000000000e+00 9.4542027117582284e-01 5.0418134007674052e-02  0.0000000000000000e+00 9.4651943982252762e-01 5.3031738944338734e-02  0.0000000000000000e+00 9.4734065437148118e-01 5.5721738531770607e-02  0.0000000000000000e+00 9.4790878790647048e-01 5.8445937178602102e-02  0.0000000000000000e+00 9.4824961195961355e-01 6.1217929021240444e-02  0.0000000000000000e+00 9.4837067367469174e-01 6.4115862450746783e-02  0.0000000000000000e+00 9.4828102053785024e-01 6.7170156549621274e-02  0.0000000000000000e+00 9.4801034027376230e-01 7.0286592885811044e-02  0.0000000000000000e+00 9.4759387551647034e-01 7.3396460166174043e-02  0.0000000000000000e+00 9.4705782301602537e-01 7.6491387413115938e-02  0.0000000000000000e+00 9.4641524975521008e-01 7.9559637765152541e-02  0.0000000000000000e+00 9.4565393099033190e-01 8.2679696386509419e-02  0.0000000000000000e+00 9.4477302918938877e-01 8.5896676482785053e-02  0.0000000000000000e+00 9.4379968839028083e-01 8.9152482743201450e-02  0.0000000000000000e+00 9.4276522130933627e-01 9.2384411238451855e-02  0.0000000000000000e+00 9.4173547454131790e-01 9.5446292174270794e-02  0.0000000000000000e+00 9.4071045650384055e-01 9.8364756270746839e-02  0.0000000000000000e+00 9.3970872013112883e-01 1.0111451049231891e-01  0.0000000000000000e+00 9.3873063961417735e-01 1.0372026695122570e-01  0.0000000000000000e+00 9.3776049226736935e-01 1.0623556504068227e-01  0.0000000000000000e+00 9.3679608358072786e-01 1.0866791614986274e-01  0.0000000000000000e+00 9.3583953241870188e-01 1.1102741865403312e-01  0.0000000000000000e+00 9.3490216827496231e-01 1.1330143039089029e-01  0.0000000000000000e+00 9.3402866918562000e-01 1.1538944236398109e-01  0.0000000000000000e+00 9.3323600230617798e-01 1.1726081988489796e-01  0.0000000000000000e+00 9.3253142450116011e-01 1.1890942850909109e-01  0.0000000000000000e+00 9.3192801148876692e-01 1.2031169447591057e-01  0.0000000000000000e+00 9.3143412198978670e-01 1.2145184387873650e-01  0.0000000000000000e+00 9.4336932816028463e-01 9.0510875176560340e-02  0.0000000000000000e+00 5.6199374469018049e-01 9.5745417199711840e-03  0.0000000000000000e+00 9.4747205088454856e-01 7.4296589753083314e-02  0.0000000000000000e+00 7.3334841138738405e-01 1.3491163419420452e-02  0.0000000000000000e+00 9.3145075627608942e-01 1.2141004031968455e-01  0.0000000000000000e+00 3.6396640457407792e-01 7.7237047203244369e-03  0.0000000000000000e+00 9.4180458048518145e-01 4.4973098595020931e-02  0.0000000000000000e+00 8.8312507371146076e-01 2.3887089789041721e-02  0.0000000000000000e+00 3.1463885606412439e-01 7.5877581388900505e-03  0.0000000000000000e+00 5.0464598213665746e-01 8.8442290917143344e-03  0.0000000000000000e+00 9.4832040212899416e-01 6.2425235055883044e-02  0.0000000000000000e+00 4.5204578755727282e-01 8.2980605728103091e-03  0.0000000000000000e+00 4.4245826728183241e-01 8.2251004595211390e-03  0.0000000000000000e+00 9.4321983651252583e-01 4.6770271889095452e-02  0.0000000000000000e+00 6.0497256038206038e-01 1.0306625147072982e-02  0.0000000000000000e+00 9.4372762054131476e-01 8.9434470067655925e-02  0.0000000000000000e+00 3.9518269160289593e-01 7.8803075109363414e-03  0.0000000000000000e+00 3.5326517774772842e-01 7.6824180682063641e-03  0.0000000000000000e+00 9.3815128858210373e-01 1.0524325817906632e-01  0.0000000000000000e+00 9.2243724284313378e-01 3.2882718764376470e-02  0.0000000000000000e+00 6.9606987141675958e-01 1.2363454335308811e-02  0.0000000000000000e+00 8.7937335390038840e-01 2.3308978446045861e-02  0.0000000000000000e+00 9.3493711647836308e-01 1.1322338542218366e-01  0.0000000000000000e+00 3.2958446197947200e-01 7.6150749164521272e-03  0.0000000000000000e+00 7.7947435066460014e-01 1.5413086742691146e-02  0.0000000000000000e+00 8.3508233251681729e-01 1.8749146993654278e-02  0.0000000000000000e+00 9.3179732138721783e-01 1.2061376003574226e-01  0.0000000000000000e+00 9.3741922448565729e-01 1.0709618443170076e-01  0.0000000000000000e+00 6.3525705377693487e-01 1.0864947343577609e-02  0.0000000000000000e+00 3.3350845808104479e-01 7.6239845994461302e-03  0.0000000000000000e+00 9.2632867844169220e-01 3.4452078659918131e-02  0.0000000000000000e+00 9.4818785913971282e-01 6.0275398196500636e-02  0.0000000000000000e+00 3.1687761964822725e-01 7.5893916665691940e-03  0.0000000000000000e+00 8.2749481352433496e-01 1.8211861356951891e-02  0.0000000000000000e+00 7.9257366561291698e-01 1.6030936522292101e-02  0.0000000000000000e+00 9.3071696324200470e-01 1.2309300130497297e-01  0.0000000000000000e+00 4.0371791585408756e-01 7.9386936159985336e-03  0.0000000000000000e+00 5.1078481155524891e-01 8.9028144079353420e-03  0.0000000000000000e+00 9.3381434540735331e-01 1.1589280418893078e-01  0.0000000000000000e+00 9.4681015450476558e-01 7.7726677694620272e-02  0.0000000000000000e+00 6.8570198261350157e-01 1.2046221927615100e-02  0.0000000000000000e+00 3.2092530839381550e-01 7.5966214461726574e-03  0.0000000000000000e+00 9.0898561633750141e-01 2.8791733766688778e-02  0.0000000000000000e+00 9.4134330954252243e-01 9.6604267364061094e-02  0.0000000000000000e+00 9.3546567806371239e-01 3.9386081330385646e-02  0.0000000000000000e+00 3.1371518103850315e-01 7.5848287191861890e-03  0.0000000000000000e+00 3.4698660819244159e-01 7.6622593757309848e-03  0.0000000000000000e+00 8.5820358789951390e-01 2.0844425702005696e-02  0.0000000000000000e+00 5.4520166679135684e-01 9.3543776688955090e-03  0.0000000000000000e+00 9.4031191984018647e-01 9.9461371982745697e-02  0.0000000000000000e+00 9.4832908025153229e-01 6.6848367078147813e-02  0.0000000000000000e+00 9.3662717951504293e-01 4.0230347518702025e-02  0.0000000000000000e+00 3.7514707598319585e-01 7.7717312031261214e-03  0.0000000000000000e+00 9.0704498950932777e-01 2.8287214531229635e-02  0.0000000000000000e+00 5.9947963534337945e-01 1.0185339032922645e-02  0.0000000000000000e+00 9.4660771922875675e-01 5.3196986010141986e-02  0.0000000000