<?xml version="1.0"?>
<VTKFile type="UnstructuredGrid"  version="0.1"  >
<UnstructuredGrid>
<Piece  NumberOfPoints="4940" NumberOfCells="9650">
<Points>
<DataArray  type="Float64"  NumberOfComponents="3"  format="ascii">500 250 0  0 250 0  250 500 0  250 0 0  256.8885856082646 499.9050767557906 0  263.7719401218049 499.6203791065173 0  270.6448364229772 499.1461232471188 0  277.5020553257866 498.4826693209355 0  284.3383895508592 497.6305211460281 0  291.1486476865662 496.5903258312597 0  297.9276581259182 495.3628732847843 0  304.6702729675493 493.9490956196674 0  311.3713719748657 492.3500664368026 0  318.0258664141369 490.5670000199653 0  324.6287029687753 488.6012504015818 0  331.1748675330201 486.4543103455647 0  337.6593890460416 484.1278102064655 0  344.0773432429536 481.6235166997244 0  350.4238564271474 478.9433315480048 0  356.694109139292 476.0892900492477 0  362.88333985546 473.0635595140469 0  368.9868485575419 469.8684376402048 0  375.0000003153078 466.5063507640667 0  380.9182288257928 462.9798520074548 0  386.7370398729688 459.2916193419558 0  392.4520147244077 455.444453565817 0  398.0588135356345 451.4412761437442 0  403.5531785622926 447.285127045646 0  408.9309374414144 442.9791624087773 0  414.1880064015299 438.5266521049243 0  419.3203932989752 433.9309773069245 0  424.324200661095 429.1956279150535 0  429.1956286596235 424.3241998957182 0  433.9309780058756 419.3203925397119 0  438.5266527445345 414.1880056671062 0  442.9791630130591 408.9309367076756 0  447.2851276060475 403.5531778422888 0  451.4412766621026 398.0588128303826 0  455.4444540361634 392.4520140460735 0  459.2916197786263 386.7370392045948 0  462.9798524073514 380.9182281752347 0  466.5063511234856 374.9999996927758 0  469.8684379657123 368.9868479560565 0  473.0635598144817 362.8833392617846 0  476.0892903190255 356.6941085676214 0  478.9433317963513 350.4238558609745 0  481.6235169154735 344.0773427117675 0  484.12781039012 337.6593885555221 0  486.4543105028062 331.1748670749914 0  488.601250531677 324.6287025528375 0  490.5670001317469 318.0258660188321 0  492.3500665291326 311.3713716102628 0  493.949095695951 304.6702726271575 0  495.3628733416623 297.9276578347343 0  496.5903258712341 291.1486474470129 0  497.6305211749058 284.3383893426084 0  498.4826693388848 277.502055163614 0  499.1461232580606 270.6448362909296 0  499.6203791109319 263.7719400417897 0  499.9050767571306 256.8885855596534 0  499.9050767559877 243.1114143988867 0  499.6203791069493 236.2280598860241 0  499.1461232485393 229.3551635941651 0  498.4826693235677 222.4979446979962 0  497.6305211491849 215.6616104719064 0  496.5903258357701 208.8513523404629 0  495.3628732906988 202.0723419043604 0  493.9490956264813 195.3297270628552 0  492.3500664487791 188.6286280724281 0  490.5670000344809 181.9741336371959 0  488.6012504175981 175.3712970824318 0  486.4543103623226 168.8251325157939 0  484.1278102222298 162.3406109960628 0  481.6235167152198 155.9226567951971 0  478.9433315621651 149.5761436051346 0  476.0892900516498 143.3058908657982 0  473.063559513628 137.1166601437124 0  469.8684376406648 131.0131514433083 0  466.5063507675389 124.9999996907064 0  462.9798520124137 119.0817711822745 0  459.2916193464549 113.2629601339176 0  455.4444535642773 107.5479852733717 0  451.4412761528674 101.9411864767781 0  447.2851270583545 96.44682145403524 0  442.9791624165781 91.06906256805769 0  438.5266521117469 85.81199360630404 0  433.9309773156125 80.67960671046254 0  429.1956279150353 75.67579933888632 0  424.3241998888952 70.80437133373906 0  419.3203925223282 66.06902197812161 0  414.1880056411937 61.47334723289828 0  408.9309366751728 57.0208369601728 0  403.5531778009394 52.71487236176898 0  398.058812796452 48.55872331295853 0  392.4520140187753 44.55554594490843 0  386.7370391799677 40.70838020528396 0  380.9182281475119 37.02014757560744 0  374.9999996718656 33.49364886444181 0  368.9868479340393 30.13156202237255 0  362.8833392380029 26.93644017348339 0  356.6941085456942 23.91070967062674 0  350.4238558420009 21.0566681953261 0  344.0773426899492 18.37648307566465 0  337.6593885328982 15.87218960140942 0  331.1748670549786 13.54568949032341 0  324.6287025315056 11.39874946165088 0  318.0258660010876 9.432999863235466 0  311.3713716017894 7.649933468721599 0  304.6702726190621 6.050904302234756 0  297.9276578269805 4.637126656823085 0  291.148647441857 3.409674127905504 0  284.3383893425031 2.369478825079682 0  277.502055159398 1.517330660648639 0  270.6448362875833 0.853876741662134 0  263.7719400401456 0.3796208889774277 0  256.8885855592052 0.09492324285704967 0  243.1114143979462 0.09492324403817065 0  236.2280598850882 0.3796208931023841 0  229.3551635938215 0.8538767514891958 0  222.4979446968584 1.517330676558146 0  215.6616104703111 2.369478851036291 0  208.8513523382973 3.409674164591252 0  202.0723419066374 4.637126708856528 0  195.3297270659513 6.050904372824903 0  188.628628074828 7.649933550613184 0  181.9741336377093 9.432999965373938 0  175.3712970793675 11.39874958336037 0  168.8251325057572 13.54568964112298 0  162.340610986655 15.87218978129263 0  155.9226567874317 18.37648328793418 0  149.576143602509 21.05666843898663 0  143.3058908718157 23.91070994551046 0  137.1166601505524 26.93644048291054 0  131.0131514451933 30.13156235831508 0  124.9999996848412 33.49364923584736 0  119.0817711715717 37.0201479941652 0  113.2629601211624 40.70838066187849 0  107.5479852622251 44.55554644345162 0  101.9411864693332 48.55872385260452 0  96.44682143286516 52.71487295812284 0  91.06906254351222 57.02083760363669 0  85.81199358272519 61.4733479087879 0  80.67960667988106 66.06902271253972 0  75.67579930062769 70.80437212218331 0  70.80437129287643 75.67580015310926 0  66.06902193673014 80.67960752263491 0  61.47334718684866 85.81199441168215 0  57.02083692524275 91.0690633672404 0  52.71487232786438 96.44682224262129 0  48.55872328070024 101.941187247437 0  44.55554591578033 107.5479860232332 0  40.7083801742321 113.2629608675606 0  37.02014754791168 119.0817718975441 0  33.49364883372994 125.000000381329 0  30.13156199866361 131.0131521097709 0  26.9364401549829 137.1166607985551 0  23.91070965524918 143.3058914868915 0  21.05666818346614 149.576144185037 0  18.37648306853811 155.9226573275967 0  15.8721895918909 162.3406114925245 0  13.54568948170046 168.8251329701392 0  11.39874945301878 175.3712974960928 0  9.432999857087736 181.9741340206533 0  7.649933466342702 188.6286284076045 0  6.050904301250966 195.3297273853278 0  4.637126656808988 202.0723421730917 0  3.409674127767772 208.8513525589684 0  2.369478824521138 215.6616106615248 0  1.517330660909465 222.4979448382452 0  0.8538767414496533 229.355163714981 0  0.3796208887135322 236.2280599646376 0  0.09492324266324204 243.1114144478261 0  0.0949232442452228 256.8885856095658 0  0.3796208935834784 263.7719401236316 0  0.8538767530323526 270.6448364248016 0  1.517330679476544 277.5020553295092 0  2.369478854618649 284.3383895555228 0  3.409674170191892 291.1486476952655 0  4.6371267162381 297.9276581311522 0  6.050904381420935 304.6702729724059 0  7.649933562385399 311.3713719716595 0  9.43299997979841 318.0258664133013 0  11.3987495994252 324.6287029719946 0  13.54568965885832 331.174867545904 0  15.87218979367188 337.6593890464085 0  18.37648329843151 344.0773432384132 0  21.05666844777872 350.423856417535 0  23.91070995156048 356.6941091410045 0  26.93644048988043 362.8833398632205 0  30.13156235982007 368.9868485575877 0  33.49364924138357 375.0000003247478 0  37.0201480006036 380.9182288389023 0  40.70838066758398 386.7370398875706 0  44.55554644477201 392.4520147396792 0  48.55872386086904 398.0588135419111 0  52.71487295981296 403.5531785693063 0  57.02083760525949 408.9309374584583 0  61.47334790862246 414.1880064170849 0  66.06902271205095 419.320393319588 0  70.80437211216579 424.3242006890749 0  75.67580013809859 429.195628692521 0  80.6796075127923 433.930978054209 0  85.81199439754931 438.5266528008431 0  91.06906334717917 442.9791630582355 0  96.44682221438322 447.2851276501571 0  101.9411872243843 451.441276702356 0  107.5479859945825 455.4444540643537 0  113.2629608446994 459.2916198108319 0  119.0817718768376 462.9798524393601 0  125.0000003647644 466.5063511567065 0  131.0131521012763 469.8684379967393 0  137.1166607840049 473.0635598376539 0  143.3058914748804 476.0892903390826 0  149.5761441732679 478.9433318113714 0  155.9226573130112 481.6235169255377 0  162.3406114779862 484.1278104026658 0  168.8251329570439 486.4543105138039 0  175.3712974805475 488.601250542119 0  181.9741340135204 490.5670001408953 0  188.6286284005059 492.3500665318597 0  195.3297273788229 493.9490956972913 0  202.0723421640089 495.3628733414168 0  208.8513525529672 496.5903258712308 0  215.6616106544547 497.6305211744985 0  222.4979448327038 498.4826693384772 0  229.3551637102845 499.1461232581612 0  236.2280599621369 499.6203791111485 0  243.1114144470173 499.9050767573145 0  155.2373389820306 474.8197567317462 0  25.36256300907667 153.9152755065208 0  432.3709625126712 412.6214396304305 0  6.013151705810699 246.637913163471 0  246.6379131630491 493.986848294322 0  338.6995838441862 22.68244767887072 0  477.3175523131281 338.6995838660569 0  493.9868482700757 246.6379131399102 0  246.6201155078769 6.218451882810491 0  417.6179310263282 72.7156044707053 0  102.2232990934413 445.0100869616822 0  63.66330858966404 92.20354579482142 0  391.3105220491464 50.73522820883105 0  72.79295043967942 418.0702734974704 0  448.290574428537 108.25674339002 0  402.4604651193511 440.7462829841712 0  97.55317348421397 59.11376320116034 0  136.7376477664901 33.58246472647134 0  363.3288394375288 465.6947312928271 0  44.0678766556007 381.0860953771871 0  469.6905266180034 142.3890690100806 0  22.68244791668644 338.6995843487432 0  338.699584349159 477.317552078365 0  173.389488083762 18.6681884918202 0  483.4809734778481 179.7121987795732 0  13.50237455842738 306.4709525540879 0  305.9825168523021 487.24416992
[...]
<PointData  Vectors="f_12"> 
<DataArray  type="Float64"  Name="f_12"  NumberOfComponents="3" format="ascii">0.0000000000000000e+00 2.4441070636496992e-01 7.8331526443865609e-03  0.0000000000000000e+00 1.2095498821037624e-01 1.0869006645738978e-02  0.0000000000000000e+00 7.8927106138594028e-01 1.5903745674724107e-02  0.0000000000000000e+00 3.0604939870138972e-02 4.9437997694559241e-02  0.0000000000000000e+00 7.9081921980835179e-01 1.5982383454941351e-02  0.0000000000000000e+00 7.9169784219443162e-01 1.6027833557815150e-02  0.0000000000000000e+00 7.9222972815952319e-01 1.6055046654879182e-02  0.0000000000000000e+00 7.9219358098466963e-01 1.6053802458215246e-02  0.0000000000000000e+00 7.9169778171344618e-01 1.6028415674304561e-02  0.0000000000000000e+00 7.9072402230106376e-01 1.5977917405473115e-02  0.0000000000000000e+00 7.8928212932110875e-01 1.5903798788348262e-02  0.0000000000000000e+00 7.8741121805123349e-01 1.5808929490633047e-02  0.0000000000000000e+00 7.8509124584263745e-01 1.5693018326664109e-02  0.0000000000000000e+00 7.8228740262532626e-01 1.5555414329943734e-02  0.0000000000000000e+00 7.7882670309550328e-01 1.5389538304395295e-02  0.0000000000000000e+00 7.7530294073625206e-01 1.5222970784981861e-02  0.0000000000000000e+00 7.7081971486563894e-01 1.5018832390837901e-02  0.0000000000000000e+00 7.6624397270792466e-01 1.4817341522545371e-02  0.0000000000000000e+00 7.6118907028103988e-01 1.4602178061098781e-02  0.0000000000000000e+00 7.5575902340040380e-01 1.4377812361080574e-02  0.0000000000000000e+00 7.5004103044251813e-01 1.4151147048164258e-02  0.0000000000000000e+00 7.4382743255086070e-01 1.3918272785773619e-02  0.0000000000000000e+00 7.3724079425594935e-01 1.3681989597572245e-02  0.0000000000000000e+00 7.3041467952841221e-01 1.3446677261738239e-02  0.0000000000000000e+00 7.2307237909605060e-01 1.3204392137070434e-02  0.0000000000000000e+00 7.1503499910364032e-01 1.2950819109677325e-02  0.0000000000000000e+00 7.0623226589543020e-01 1.2683752113464074e-02  0.0000000000000000e+00 6.9708918850661750e-01 1.2417878905158863e-02  0.0000000000000000e+00 6.8743512191950518e-01 1.2150447651598565e-02  0.0000000000000000e+00 6.7710980263524301e-01 1.1878491740166155e-02  0.0000000000000000e+00 6.6667616350162395e-01 1.1619581325184003e-02  0.0000000000000000e+00 6.5589329311359024e-01 1.1368881053295291e-02  0.0000000000000000e+00 6.4476739478229850e-01 1.1125562405564844e-02  0.0000000000000000e+00 6.3326050211657914e-01 1.0886733894340871e-02  0.0000000000000000e+00 6.2090207483035653e-01 1.0643663776938012e-02  0.0000000000000000e+00 6.0796274244430093e-01 1.0401074706728228e-02  0.0000000000000000e+00 5.9463276270107834e-01 1.0161457023351802e-02  0.0000000000000000e+00 5.8080914013812279e-01 9.9281253215220445e-03  0.0000000000000000e+00 5.6672342037788970e-01 9.7081264646983086e-03  0.0000000000000000e+00 5.5269636931141586e-01 9.5046215057059714e-03  0.0000000000000000e+00 5.3856077278792724e-01 9.3132880735513155e-03  0.0000000000000000e+00 5.2378896449411028e-01 9.1247364025517398e-03  0.0000000000000000e+00 5.0837032670493276e-01 8.9367345250522066e-03  0.0000000000000000e+00 4.9281161070370322e-01 8.7596045236285978e-03  0.0000000000000000e+00 4.7719393807067834e-01 8.5957688196871933e-03  0.0000000000000000e+00 4.6169137005222755e-01 8.4467458766924707e-03  0.0000000000000000e+00 4.4630665285925580e-01 8.3130877172264209e-03  0.0000000000000000e+00 4.3090564508384216e-01 8.1928945508929676e-03  0.0000000000000000e+00 4.1503649350478150e-01 8.0767633442004935e-03  0.0000000000000000e+00 3.9919406467896884e-01 7.9705274656774946e-03  0.0000000000000000e+00 3.8364737749895089e-01 7.8808197032601435e-03  0.0000000000000000e+00 3.6849856245729634e-01 7.8073990262426405e-03  0.0000000000000000e+00 3.5368552773993611e-01 7.7515425198445547e-03  0.0000000000000000e+00 3.3887816785061292e-01 7.7076119669060071e-03  0.0000000000000000e+00 3.2416546107145128e-01 7.6745259568466928e-03  0.0000000000000000e+00 3.0979490664213000e-01 7.6567541333971492e-03  0.0000000000000000e+00 2.9582719774121002e-01 7.6551780593452990e-03  0.0000000000000000e+00 2.8239283376226598e-01 7.6729192379643802e-03  0.0000000000000000e+00 2.6935890016539310e-01 7.7007585431712209e-03  0.0000000000000000e+00 2.5691311300077757e-01 7.7533614737704615e-03  0.0000000000000000e+00 2.3232307625263385e-01 7.9061160338396424e-03  0.0000000000000000e+00 2.2090135549960918e-01 8.0099781626129119e-03  0.0000000000000000e+00 2.1019086450583141e-01 8.1386371320627763e-03  0.0000000000000000e+00 1.9970315208797823e-01 8.2812485631690025e-03  0.0000000000000000e+00 1.8959475103105269e-01 8.4511326257613248e-03  0.0000000000000000e+00 1.7981196964479093e-01 8.6364738712362606e-03  0.0000000000000000e+00 1.7062914717713507e-01 8.8497352430401618e-03  0.0000000000000000e+00 1.6199814453551975e-01 9.0860086354088224e-03  0.0000000000000000e+00 1.5378707882884626e-01 9.3481681940792167e-03  0.0000000000000000e+00 1.4589282968588435e-01 9.6385882852147824e-03  0.0000000000000000e+00 1.3828595872634364e-01 9.9558353716077234e-03  0.0000000000000000e+00 1.3115613484543662e-01 1.0302483082219619e-02  0.0000000000000000e+00 1.2447945429752028e-01 1.0677388011701013e-02  0.0000000000000000e+00 1.1824005301607345e-01 1.1082618185779977e-02  0.0000000000000000e+00 1.1230050408873592e-01 1.1521472766627147e-02  0.0000000000000000e+00 1.0661338576932210e-01 1.1998956173215829e-02  0.0000000000000000e+00 1.0120383888597324e-01 1.2512852278343704e-02  0.0000000000000000e+00 9.6158615882980039e-02 1.3061762096902588e-02  0.0000000000000000e+00 9.1492009288146159e-02 1.3643532435731165e-02  0.0000000000000000e+00 8.7137451071907929e-02 1.4260889647876604e-02  0.0000000000000000e+00 8.2986894331706321e-02 1.4922405622646495e-02  0.0000000000000000e+00 7.9051986038617295e-02 1.5630778536314574e-02  0.0000000000000000e+00 7.5304888958435179e-02 1.6388370377668784e-02  0.0000000000000000e+00 7.1829889834596108e-02 1.7181759630439799e-02  0.0000000000000000e+00 6.8627943828508065e-02 1.8008543114588813e-02  0.0000000000000000e+00 6.5673422757358699e-02 1.8868011451629182e-02  0.0000000000000000e+00 6.2905294680290061e-02 1.9768090663490525e-02  0.0000000000000000e+00 6.0273146441957311e-02 2.0721019679102393e-02  0.0000000000000000e+00 5.7761652683942427e-02 2.1725561058684444e-02  0.0000000000000000e+00 5.5394086906988244e-02 2.2781192809857617e-02  0.0000000000000000e+00 5.3203176510392643e-02 2.3868062551908552e-02  0.0000000000000000e+00 5.1200376195966894e-02 2.4973776236032391e-02  0.0000000000000000e+00 4.9361209517097090e-02 2.6100246213634461e-02  0.0000000000000000e+00 4.7669677211512759e-02 2.7238594794409484e-02  0.0000000000000000e+00 4.6099813935903879e-02 2.8394544860746638e-02  0.0000000000000000e+00 4.4584454388240852e-02 2.9605737728611775e-02  0.0000000000000000e+00 4.3145998963413333e-02 3.0857458615381441e-02  0.0000000000000000e+00 4.1824081363393655e-02 3.2112455861983628e-02  0.0000000000000000e+00 4.0576091801094283e-02 3.3395605231423361e-02  0.0000000000000000e+00 3.9419160526484760e-02 3.4685654139032823e-02  0.0000000000000000e+00 3.8404096680240724e-02 3.5911960715687086e-02  0.0000000000000000e+00 3.7480647069706712e-02 3.7121376750588173e-02  0.0000000000000000e+00 3.6642379730488131e-02 3.8286710637547655e-02  0.0000000000000000e+00 3.5872366291134813e-02 3.9426282326438231e-02  0.0000000000000000e+00 3.5165405754793141e-02 4.0531803780912201e-02  0.0000000000000000e+00 3.4511403089269838e-02 4.1610542468266599e-02  0.0000000000000000e+00 3.3910814868345275e-02 4.2650478282731913e-02  0.0000000000000000e+00 3.3364103678768887e-02 4.3642640084837411e-02  0.0000000000000000e+00 3.2859595010691814e-02 4.4597647886406279e-02  0.0000000000000000e+00 3.2397721034058399e-02 4.5503868492722296e-02  0.0000000000000000e+00 3.1991047943539498e-02 4.6333362566865995e-02  0.0000000000000000e+00 3.1640670506799966e-02 4.7077156951643176e-02  0.0000000000000000e+00 3.1346768514257287e-02 4.7726089593972502e-02  0.0000000000000000e+00 3.1089257315290556e-02 4.8308040986339167e-02  0.0000000000000000e+00 3.0884089230928655e-02 4.8782092834041522e-02  0.0000000000000000e+00 3.0719811433014884e-02 4.9166368073282007e-02  0.0000000000000000e+00 3.0555347159711158e-02 4.9565162825382571e-02  0.0000000000000000e+00 3.0440682746658315e-02 4.9820149054240689e-02  0.0000000000000000e+00 3.0495468393062278e-02 4.9703398547062343e-02  0.0000000000000000e+00 3.0539917376056706e-02 4.9594863355037239e-02  0.0000000000000000e+00 3.0617910094645675e-02 4.9406448676169966e-02  0.0000000000000000e+00 3.0744870804824936e-02 4.9109374578285590e-02  0.0000000000000000e+00 3.0918495300927357e-02 4.8705580897391146e-02  0.0000000000000000e+00 3.1122288077033596e-02 4.8238921624775492e-02  0.0000000000000000e+00 3.1370358823568832e-02 4.7682599036099088e-02  0.0000000000000000e+00 3.1607300619947314e-02 4.7153749895627269e-02  0.0000000000000000e+00 3.1963006897024124e-02 4.6401074793476327e-02  0.0000000000000000e+00 3.2335564627523732e-02 4.5635660208942171e-02  0.0000000000000000e+00 3.2744596343488461e-02 4.4826744485261999e-02  0.0000000000000000e+00 3.3168313635817639e-02 4.4005111063635097e-02  0.0000000000000000e+00 3.3638801865040431e-02 4.3131760624928329e-02  0.0000000000000000e+00 3.4166537774046379e-02 4.2198852023442965e-02  0.0000000000000000e+00 3.4713938410481926e-02 4.1268260154830594e-02  0.0000000000000000e+00 3.5292562152872763e-02 4.0323094836846582e-02  0.0000000000000000e+00 3.5905987056077213e-02 3.9365427488837985e-02  0.0000000000000000e+00 3.6562484564346610e-02 3.8390794342081966e-02  0.0000000000000000e+00 3.7275764409084838e-02 3.7390103793392811e-02  0.0000000000000000e+00 3.8046789537340329e-02 3.6366386045618232e-02  0.0000000000000000e+00 3.8867788204740801e-02 3.5335720737436488e-02  0.0000000000000000e+00 3.9751012416562100e-02 3.4294847201657111e-02  0.0000000000000000e+00 4.0704330512891400e-02 3.3242967769172564e-02  0.0000000000000000e+00 4.1724467943572097e-02 3.2191769844080204e-02  0.0000000000000000e+00 4.2807375220174949e-02 3.1149996615395487e-02  0.0000000000000000e+00 4.3941752317675165e-02 3.0131711207234249e-02  0.0000000000000000e+00 4.5121303689201746e-02 2.9142548781779333e-02  0.0000000000000000e+00 4.6340019847544663e-02 2.8187450022619624e-02  0.0000000000000000e+00 4.7600475296392157e-02 2.7264362014543710e-02  0.0000000000000000e+00 4.8907090950982515e-02 2.6370444815357268e-02  0.0000000000000000e+00 5.0283936327999601e-02 2.5493470664730053e-02  0.0000000000000000e+00 5.1754155780124260e-02 2.4628696779605809e-02  0.0000000000000000e+00 5.3345190329553038e-02 2.3764270063445680e-02  0.0000000000000000e+00 5.5048261020711142e-02 2.2913741693484823e-02  0.0000000000000000e+00 5.6856642635458449e-02 2.2083962745202298e-02  0.0000000000000000e+00 5.8748160450589684e-02 2.1284296860333996e-02  0.0000000000000000e+00 6.0705696059561914e-02 2.0521089465448804e-02  0.0000000000000000e+00 6.2714737757822769e-02 1.9798864642599542e-02  0.0000000000000000e+00 6.4829571030296615e-02 1.9098120041067427e-02  0.0000000000000000e+00 6.7029906596733010e-02 1.8426501004834447e-02  0.0000000000000000e+00 6.9326553944137254e-02 1.7784479635691925e-02  0.0000000000000000e+00 7.1816292091864853e-02 1.7147212894375524e-02  0.0000000000000000e+00 7.4518865400071382e-02 1.6522351764429517e-02  0.0000000000000000e+00 7.7404396770874684e-02 1.5916597126723348e-02  0.0000000000000000e+00 8.0362421997488012e-02 1.5348916294878437e-02  0.0000000000000000e+00 8.3534299438548676e-02 1.4796453761872636e-02  0.0000000000000000e+00 8.6765098873370972e-02 1.4282364294016544e-02  0.0000000000000000e+00 9.0149217985931715e-02 1.3787223881920947e-02  0.0000000000000000e+00 9.3720748284126576e-02 1.3321289003697175e-02  0.0000000000000000e+00 9.7601973890829322e-02 1.2860868335709975e-02  0.0000000000000000e+00 1.0181572862150615e-01 1.2417150542827434e-02  0.0000000000000000e+00 1.0629643262697475e-01 1.1994144021502111e-02  0.0000000000000000e+00 1.1097956374424880e-01 1.1595349936911140e-02  0.0000000000000000e+00 1.1584714191390537e-01 1.1220664539630276e-02  0.0000000000000000e+00 1.2639260796975721e-01 1.0534840486820957e-02  0.0000000000000000e+00 1.3224676289560480e-01 1.0216746134049744e-02  0.0000000000000000e+00 1.3856043873359714e-01 9.9179130165060192e-03  0.0000000000000000e+00 1.4526739438002143e-01 9.6362092977358132e-03  0.0000000000000000e+00 1.5228851379755731e-01 9.3755225532024498e-03  0.0000000000000000e+00 1.5961827163779330e-01 9.1341882910097125e-03  0.0000000000000000e+00 1.6735887017203011e-01 8.9120129491949730e-03  0.0000000000000000e+00 1.7566791539273571e-01 8.7071808714732409e-03  0.0000000000000000e+00 1.8461901040409623e-01 8.5206363890385443e-03  0.0000000000000000e+00 1.9413297540654201e-01 8.3520079245778915e-03  0.0000000000000000e+00 2.0406577285791178e-01 8.2025982230149782e-03  0.0000000000000000e+00 2.1438174632194479e-01 8.0683892074235614e-03  0.0000000000000000e+00 2.2523214400881914e-01 7.9537473641013313e-03  0.0000000000000000e+00 2.3684854758395207e-01 7.8584555728372640e-03  0.0000000000000000e+00 2.4915745094914238e-01 7.7814865778571482e-03  0.0000000000000000e+00 2.6206784884761669e-01 7.7226788641377563e-03  0.0000000000000000e+00 2.7542157267687717e-01 7.6795547927922527e-03  0.0000000000000000e+00 2.8920144932340486e-01 7.6508043432310302e-03  0.0000000000000000e+00 3.0376603977429317e-01 7.6467101861956077e-03  0.0000000000000000e+00 3.1904593532043873e-01 7.6593477393309501e-03  0.0000000000000000e+00 3.3493906685000702e-01 7.6920758327329612e-03  0.0000000000000000e+00 3.5112867580843005e-01 7.7387252021119861e-03  0.0000000000000000e+00 3.6765004299791537e-01 7.8004452608361830e-03  0.0000000000000000e+00 3.8477048860441715e-01 7.8844601331880121e-03  0.0000000000000000e+00 4.0249561010293122e-01 7.9907254163665876e-03  0.0000000000000000e+00 4.2060076898668736e-01 8.1158064816825859e-03  0.0000000000000000e+00 4.3880796755140228e-01 8.2541620491341158e-03  0.0000000000000000e+00 4.5689908013958536e-01 8.4057555204473909e-03  0.0000000000000000e+00 4.7528167241611813e-01 8.5803674050280148e-03  0.0000000000000000e+00 4.9387002678026032e-01 8.7757549814436644e-03  0.0000000000000000e+00 5.1248636750581378e-01 8.9906509286234448e-03  0.0000000000000000e+00 5.3079454809727034e-01 9.2178861984975134e-03  0.0000000000000000e+00 5.4861634226180389e-01 9.4540960597849430e-03  0.0000000000000000e+00 5.6614925092373070e-01 9.7071781582725655e-03  0.0000000000000000e+00 5.8358026702114207e-01 9.9828531134641234e-03  0.0000000000000000e+00 6.0055133227006507e-01 1.0273751898270352e-02  0.0000000000000000e+00 6.1689094115793086e-01 1.0574723934319704e-02  0.0000000000000000e+00 6.3260300003453251e-01 1.0881045119008052e-02  0.0000000000000000e+00 6.4736330037261824e-01 1.1188348017798545e-02  0.0000000000000000e+00 6.6139985036774629e-01 1.1505211644777309e-02  0.0000000000000000e+00 6.7496581543369716e-01 1.1835436638841129e-02  0.0000000000000000e+00 6.8791140281369412e-01 1.2174040283991884e-02  0.0000000000000000e+00 7.0020684610175488e-01 1.2518661190725689e-02  0.0000000000000000e+00 7.1140945154389312e-01 1.2848528762132555e-02  0.0000000000000000e+00 7.2177879926255906e-01 1.3172437990569686e-02  0.0000000000000000e+00 7.3115862374273966e-01 1.3482012791106422e-02  0.0000000000000000e+00 7.3968058778658319e-01 1.3775945139378973e-02  0.0000000000000000e+00 7.4752887198543216e-01 1.4060585288009578e-02  0.0000000000000000e+00 7.5466756986092731e-01 1.4338575094688440e-02  0.0000000000000000e+00 7.6121270811851516e-01 1.4607882116167873e-02  0.0000000000000000e+00 7.6727932392928266e-01 1.4867219527696212e-02  0.0000000000000000e+00 7.7260404568847896e-01 1.5104641628334328e-02  0.0000000000000000e+00 7.7720106252193710e-01 1.5317840679093626e-02  0.0000000000000000e+00 7.8115213471969125e-01 1.5505052149153733e-02  0.0000000000000000e+00 7.8445531530140966e-01 1.5664429354927175e-02  0.0000000000000000e+00 7.8707513381502170e-01 1.5793871037635233e-02  0.0000000000000000e+00 6.9260172491432725e-01 1.2305439534954160e-02  0.0000000000000000e+00 6.8086139815698124e-02 1.8132790622416749e-02  0.0000000000000000e+00 6.2455849391762930e-01 1.0716221526496131e-02  0.0000000000000000e+00 1.1877982863134494e-01 1.1019153751984622e-02  0.0000000000000000e+00 7.8646549156219347e-01 1.5767367762970566e-02  0.0000000000000000e+00 3.6492612386577396e-02 3.8533111970959655e-02  0.0000000000000000e+00 4.3706736853472983e-01 8.2416452815408606e-03  0.0000000000000000e+00 2.3777032994199307e-01 7.8691292283523777e-03  0.0000000000000000e+00 3.0829621927526453e-02 4.8968421556419846e-02  0.0000000000000000e+00 5.6753547374600130e-02 2.2170293719930782e-02  0.0000000000000000e+00 5.5569187821989818e-01 9.5549512128168777e-03  0.0000000000000000e+00 4.8522985567263539e-02 2.6643859632707427e-02  0.0000000000000000e+00 4.6911771204472465e-02 2.7797934552377349e-02  0.0000000000000000e+00 4.4763513937426197e-01 8.3271502922517438e-03  0.0000000000000000e+00 7.7253598951210672e-02 1.5987225623136512e-02  0.0000000000000000e+00 6.9083593519006914e-01 1.2246169995840021e-02  0.0000000000000000e+00 4.0430708463942623e-02 3.3562712832439952e-02  0.0000000000000000e+00 3.5229495597270739e-02 4.0457030986628915e-02  0.0000000000000000e+00 7.4480247297655811e-01 1.3957895882240204e-02  0.0000000000000000e+00 3.2773779525999530e-01 7.6765360810561760e-03  0.0000000000000000e+00 1.0378006148164283e-01 1.2261664437521096e-02  0.0000000000000000e+00 2.3105691862631325e-01 7.9043231224976019e-03  0.0000000000000000e+00 7.6689267976403763e-01 1.4849216988602410e-02  0.0000000000000000e+00 3.2453765344215381e-02 4.5444161080739030e-02  0.0000000000000000e+00 1.4112185549787881e-01 9.8337632868270661e-03  0.0000000000000000e+00 1.8053340944608234e-01 8.6054011394741496e-03  0.0000000000000000e+00 7.8460041856775120e-01 1.5673575937716629e-02  0.0000000000000000e+00 7.4952347799539543e-01 1.4141505505360804e-02  0.0000000000000000e+00 8.5493500809081885e-02 1.4486275334778902e-02  0.0000000000000000e+00 3.2880959679872847e-02 4.4600066703671976e-02  0.0000000000000000e+00 3.4515434642269915e-01 7.7261433924268683e-03  0.0000000000000000e+00 5.4655736812231126e-01 9.4220161283269169e-03  0.0000000000000000e+00 3.1066796018723433e-02 4.8411069403323168e-02  0.0000000000000000e+00 1.7427140927232243e-01 8.7613953881827914e-03  0.0000000000000000e+00 1.4913310390980522e-01 9.4920640756393782e-03  0.0000000000000000e+00 7.9028285741691229e-01 1.5959833431382242e-02  0.0000000000000000e+00 4.1446070558865900e-02 3.2512294033483297e-02  0.0000000000000000e+00 5.8085836307022333e-02 2.1568945457205127e-02  0.0000000000000000e+00 7.7331104066820033e-01 1.5141452078353095e-02  0.0000000000000000e+00 6.3812691813313405e-01 1.0995750741762058e-02  0.0000000000000000e+00 1.0058911872138444e-01 1.2547578322946760e-02  0.0000000000000000e+00 3.1494336313755235e-02 4.7457435161678968e-02  0.0000000000000000e+00 2.8972210174143775e-01 7.6623627153076844e-03  0.0000000000000000e+00 7.1642295023143610e-01 1.2998041918484998e-02  0.0000000000000000e+00 3.8991469235452314e-01 7.9165755563922711e-03  0.0000000000000000e+00 3.0731877685619993e-02 4.9188242831891493e-02  0.0000000000000000e+00 3.4446903003548725e-02 4.1753732799582971e-02  0.0000000000000000e+00 2.0432001986586759e-01 8.2161887898662984e-03  0.0000000000000000e+00 6.4349813955563551e-02 1.9293076513861949e-02  0.0000000000000000e+00 7.2499082891191580e-01 1.3280023140388288e-02  0.0000000000000000e+00 5.8522074042783068e-01 1.0003601256473642e-02  0.0000000000000000e+00 3.9389695492168159e-01 7.9378553393212436e-03  0.0000000000000000e+00 3.7915343335956218e-02 3.6565978468208075e-02  0.0000000000000000e+00 2.8309050567357735e-01 7.6624343863850699e-03  0.0000000000000000e+00 7.6306136621415208e-02 1.6149126997811403e-02  0.0000000000000000e+00 4.9887568777960783e-01 8.8286305884767366e-03  0.0000000000