<?xml version="1.0"?>
<VTKFile type="UnstructuredGrid"  version="0.1"  >
<UnstructuredGrid>
<Piece  NumberOfPoints="4940" NumberOfCells="9650">
<Points>
<DataArray  type="Float64"  NumberOfComponents="3"  format="ascii">500 250 0  0 250 0  250 500 0  250 0 0  256.8885856082646 499.9050767557906 0  263.7719401218049 499.6203791065173 0  270.6448364229772 499.1461232471188 0  277.5020553257866 498.4826693209355 0  284.3383895508592 497.6305211460281 0  291.1486476865662 496.5903258312597 0  297.9276581259182 495.3628732847843 0  304.6702729675493 493.9490956196674 0  311.3713719748657 492.3500664368026 0  318.0258664141369 490.5670000199653 0  324.6287029687753 488.6012504015818 0  331.1748675330201 486.4543103455647 0  337.6593890460416 484.1278102064655 0  344.0773432429536 481.6235166997244 0  350.4238564271474 478.9433315480048 0  356.694109139292 476.0892900492477 0  362.88333985546 473.0635595140469 0  368.9868485575419 469.8684376402048 0  375.0000003153078 466.5063507640667 0  380.9182288257928 462.9798520074548 0  386.7370398729688 459.2916193419558 0  392.4520147244077 455.444453565817 0  398.0588135356345 451.4412761437442 0  403.5531785622926 447.285127045646 0  408.9309374414144 442.9791624087773 0  414.1880064015299 438.5266521049243 0  419.3203932989752 433.9309773069245 0  424.324200661095 429.1956279150535 0  429.1956286596235 424.3241998957182 0  433.9309780058756 419.3203925397119 0  438.5266527445345 414.1880056671062 0  442.9791630130591 408.9309367076756 0  447.2851276060475 403.5531778422888 0  451.4412766621026 398.0588128303826 0  455.4444540361634 392.4520140460735 0  459.2916197786263 386.7370392045948 0  462.9798524073514 380.9182281752347 0  466.5063511234856 374.9999996927758 0  469.8684379657123 368.9868479560565 0  473.0635598144817 362.8833392617846 0  476.0892903190255 356.6941085676214 0  478.9433317963513 350.4238558609745 0  481.6235169154735 344.0773427117675 0  484.12781039012 337.6593885555221 0  486.4543105028062 331.1748670749914 0  488.601250531677 324.6287025528375 0  490.5670001317469 318.0258660188321 0  492.3500665291326 311.3713716102628 0  493.949095695951 304.6702726271575 0  495.3628733416623 297.9276578347343 0  496.5903258712341 291.1486474470129 0  497.6305211749058 284.3383893426084 0  498.4826693388848 277.502055163614 0  499.1461232580606 270.6448362909296 0  499.6203791109319 263.7719400417897 0  499.9050767571306 256.8885855596534 0  499.9050767559877 243.1114143988867 0  499.6203791069493 236.2280598860241 0  499.1461232485393 229.3551635941651 0  498.4826693235677 222.4979446979962 0  497.6305211491849 215.6616104719064 0  496.5903258357701 208.8513523404629 0  495.3628732906988 202.0723419043604 0  493.9490956264813 195.3297270628552 0  492.3500664487791 188.6286280724281 0  490.5670000344809 181.9741336371959 0  488.6012504175981 175.3712970824318 0  486.4543103623226 168.8251325157939 0  484.1278102222298 162.3406109960628 0  481.6235167152198 155.9226567951971 0  478.9433315621651 149.5761436051346 0  476.0892900516498 143.3058908657982 0  473.063559513628 137.1166601437124 0  469.8684376406648 131.0131514433083 0  466.5063507675389 124.9999996907064 0  462.9798520124137 119.0817711822745 0  459.2916193464549 113.2629601339176 0  455.4444535642773 107.5479852733717 0  451.4412761528674 101.9411864767781 0  447.2851270583545 96.44682145403524 0  442.9791624165781 91.06906256805769 0  438.5266521117469 85.81199360630404 0  433.9309773156125 80.67960671046254 0  429.1956279150353 75.67579933888632 0  424.3241998888952 70.80437133373906 0  419.3203925223282 66.06902197812161 0  414.1880056411937 61.47334723289828 0  408.9309366751728 57.0208369601728 0  403.5531778009394 52.71487236176898 0  398.058812796452 48.55872331295853 0  392.4520140187753 44.55554594490843 0  386.7370391799677 40.70838020528396 0  380.9182281475119 37.02014757560744 0  374.9999996718656 33.49364886444181 0  368.9868479340393 30.13156202237255 0  362.8833392380029 26.93644017348339 0  356.6941085456942 23.91070967062674 0  350.4238558420009 21.0566681953261 0  344.0773426899492 18.37648307566465 0  337.6593885328982 15.87218960140942 0  331.1748670549786 13.54568949032341 0  324.6287025315056 11.39874946165088 0  318.0258660010876 9.432999863235466 0  311.3713716017894 7.649933468721599 0  304.6702726190621 6.050904302234756 0  297.9276578269805 4.637126656823085 0  291.148647441857 3.409674127905504 0  284.3383893425031 2.369478825079682 0  277.502055159398 1.517330660648639 0  270.6448362875833 0.853876741662134 0  263.7719400401456 0.3796208889774277 0  256.8885855592052 0.09492324285704967 0  243.1114143979462 0.09492324403817065 0  236.2280598850882 0.3796208931023841 0  229.3551635938215 0.8538767514891958 0  222.4979446968584 1.517330676558146 0  215.6616104703111 2.369478851036291 0  208.8513523382973 3.409674164591252 0  202.0723419066374 4.637126708856528 0  195.3297270659513 6.050904372824903 0  188.628628074828 7.649933550613184 0  181.9741336377093 9.432999965373938 0  175.3712970793675 11.39874958336037 0  168.8251325057572 13.54568964112298 0  162.340610986655 15.87218978129263 0  155.9226567874317 18.37648328793418 0  149.576143602509 21.05666843898663 0  143.3058908718157 23.91070994551046 0  137.1166601505524 26.93644048291054 0  131.0131514451933 30.13156235831508 0  124.9999996848412 33.49364923584736 0  119.0817711715717 37.0201479941652 0  113.2629601211624 40.70838066187849 0  107.5479852622251 44.55554644345162 0  101.9411864693332 48.55872385260452 0  96.44682143286516 52.71487295812284 0  91.06906254351222 57.02083760363669 0  85.81199358272519 61.4733479087879 0  80.67960667988106 66.06902271253972 0  75.67579930062769 70.80437212218331 0  70.80437129287643 75.67580015310926 0  66.06902193673014 80.67960752263491 0  61.47334718684866 85.81199441168215 0  57.02083692524275 91.0690633672404 0  52.71487232786438 96.44682224262129 0  48.55872328070024 101.941187247437 0  44.55554591578033 107.5479860232332 0  40.7083801742321 113.2629608675606 0  37.02014754791168 119.0817718975441 0  33.49364883372994 125.000000381329 0  30.13156199866361 131.0131521097709 0  26.9364401549829 137.1166607985551 0  23.91070965524918 143.3058914868915 0  21.05666818346614 149.576144185037 0  18.37648306853811 155.9226573275967 0  15.8721895918909 162.3406114925245 0  13.54568948170046 168.8251329701392 0  11.39874945301878 175.3712974960928 0  9.432999857087736 181.9741340206533 0  7.649933466342702 188.6286284076045 0  6.050904301250966 195.3297273853278 0  4.637126656808988 202.0723421730917 0  3.409674127767772 208.8513525589684 0  2.369478824521138 215.6616106615248 0  1.517330660909465 222.4979448382452 0  0.8538767414496533 229.355163714981 0  0.3796208887135322 236.2280599646376 0  0.09492324266324204 243.1114144478261 0  0.0949232442452228 256.8885856095658 0  0.3796208935834784 263.7719401236316 0  0.8538767530323526 270.6448364248016 0  1.517330679476544 277.5020553295092 0  2.369478854618649 284.3383895555228 0  3.409674170191892 291.1486476952655 0  4.6371267162381 297.9276581311522 0  6.050904381420935 304.6702729724059 0  7.649933562385399 311.3713719716595 0  9.43299997979841 318.0258664133013 0  11.3987495994252 324.6287029719946 0  13.54568965885832 331.174867545904 0  15.87218979367188 337.6593890464085 0  18.37648329843151 344.0773432384132 0  21.05666844777872 350.423856417535 0  23.91070995156048 356.6941091410045 0  26.93644048988043 362.8833398632205 0  30.13156235982007 368.9868485575877 0  33.49364924138357 375.0000003247478 0  37.0201480006036 380.9182288389023 0  40.70838066758398 386.7370398875706 0  44.55554644477201 392.4520147396792 0  48.55872386086904 398.0588135419111 0  52.71487295981296 403.5531785693063 0  57.02083760525949 408.9309374584583 0  61.47334790862246 414.1880064170849 0  66.06902271205095 419.320393319588 0  70.80437211216579 424.3242006890749 0  75.67580013809859 429.195628692521 0  80.6796075127923 433.930978054209 0  85.81199439754931 438.5266528008431 0  91.06906334717917 442.9791630582355 0  96.44682221438322 447.2851276501571 0  101.9411872243843 451.441276702356 0  107.5479859945825 455.4444540643537 0  113.2629608446994 459.2916198108319 0  119.0817718768376 462.9798524393601 0  125.0000003647644 466.5063511567065 0  131.0131521012763 469.8684379967393 0  137.1166607840049 473.0635598376539 0  143.3058914748804 476.0892903390826 0  149.5761441732679 478.9433318113714 0  155.9226573130112 481.6235169255377 0  162.3406114779862 484.1278104026658 0  168.8251329570439 486.4543105138039 0  175.3712974805475 488.601250542119 0  181.9741340135204 490.5670001408953 0  188.6286284005059 492.3500665318597 0  195.3297273788229 493.9490956972913 0  202.0723421640089 495.3628733414168 0  208.8513525529672 496.5903258712308 0  215.6616106544547 497.6305211744985 0  222.4979448327038 498.4826693384772 0  229.3551637102845 499.1461232581612 0  236.2280599621369 499.6203791111485 0  243.1114144470173 499.9050767573145 0  155.2373389820306 474.8197567317462 0  25.36256300907667 153.9152755065208 0  432.3709625126712 412.6214396304305 0  6.013151705810699 246.637913163471 0  246.6379131630491 493.986848294322 0  338.6995838441862 22.68244767887072 0  477.3175523131281 338.6995838660569 0  493.9868482700757 246.6379131399102 0  246.6201155078769 6.218451882810491 0  417.6179310263282 72.7156044707053 0  102.2232990934413 445.0100869616822 0  63.66330858966404 92.20354579482142 0  391.3105220491464 50.73522820883105 0  72.79295043967942 418.0702734974704 0  448.290574428537 108.25674339002 0  402.4604651193511 440.7462829841712 0  97.55317348421397 59.11376320116034 0  136.7376477664901 33.58246472647134 0  363.3288394375288 465.6947312928271 0  44.0678766556007 381.0860953771871 0  469.6905266180034 142.3890690100806 0  22.68244791668644 338.6995843487432 0  338.699584349159 477.317552078365 0  173.389488083762 18.6681884918202 0  483.4809734778481 179.7121987795732 0  13.50237455842738 306.4709525540879 0  305.9825168523021 487.24416992
[...]
<PointData  Vectors="f_12"> 
<DataArray  type="Float64"  Name="f_12"  NumberOfComponents="3" format="ascii">0.0000000000000000e+00 2.5850656750344603e-01 7.7504611324257970e-03  0.0000000000000000e+00 1.2764565961685573e-01 1.0462907778165347e-02  0.0000000000000000e+00 7.8211611584113605e-01 1.5510999349640356e-02  0.0000000000000000e+00 3.1343340635371961e-02 4.7712290868666608e-02  0.0000000000000000e+00 7.8358968602097179e-01 1.5581984706564108e-02  0.0000000000000000e+00 7.8448912373750523e-01 1.5625723078111747e-02  0.0000000000000000e+00 7.8498107623596236e-01 1.5649633379400271e-02  0.0000000000000000e+00 7.8496868876008719e-01 1.5649071592322625e-02  0.0000000000000000e+00 7.8450982686890558e-01 1.5626611298284285e-02  0.0000000000000000e+00 7.8359791195476003e-01 1.5582056302664979e-02  0.0000000000000000e+00 7.8222845145171394e-01 1.5515672461845239e-02  0.0000000000000000e+00 7.8041020888633372e-01 1.5428500898403374e-02  0.0000000000000000e+00 7.7812659486888613e-01 1.5320444383607298e-02  0.0000000000000000e+00 7.7535312492100716e-01 1.5191453837681343e-02  0.0000000000000000e+00 7.7201742101267112e-01 1.5039294394414102e-02  0.0000000000000000e+00 7.6841663068770050e-01 1.4878335443787709e-02  0.0000000000000000e+00 7.6413901203570889e-01 1.4692744445666494e-02  0.0000000000000000e+00 7.5963946090494450e-01 1.4503613694892952e-02  0.0000000000000000e+00 7.5478202500750613e-01 1.4305799253189930e-02  0.0000000000000000e+00 7.4966347447812498e-01 1.4104202900889536e-02  0.0000000000000000e+00 7.4435251105422562e-01 1.3903286300944735e-02  0.0000000000000000e+00 7.3874788076823505e-01 1.3700593995823721e-02  0.0000000000000000e+00 7.3289015472924401e-01 1.3496979862688947e-02  0.0000000000000000e+00 7.2676790162423632e-01 1.3292494391291071e-02  0.0000000000000000e+00 7.2016867476400315e-01 1.3080550247794805e-02  0.0000000000000000e+00 7.1289154563457280e-01 1.2855802613459071e-02  0.0000000000000000e+00 7.0483188543045006e-01 1.2615219110450264e-02  0.0000000000000000e+00 6.9614320405081442e-01 1.2365486352151586e-02  0.0000000000000000e+00 6.8680095699896204e-01 1.2108439355577393e-02  0.0000000000000000e+00 6.7686614875207374e-01 1.1846985848093374e-02  0.0000000000000000e+00 6.6679119104859930e-01 1.1596154315976406e-02  0.0000000000000000e+00 6.5659316918225441e-01 1.1357644992430502e-02  0.0000000000000000e+00 6.4631453923102722e-01 1.1131598999615619e-02  0.0000000000000000e+00 6.3580307213037868e-01 1.0912696259253677e-02  0.0000000000000000e+00 6.2464449287682289e-01 1.0692371086495744e-02  0.0000000000000000e+00 6.1277962119110052e-01 1.0468533585784508e-02  0.0000000000000000e+00 6.0018921392723912e-01 1.0239855162775063e-02  0.0000000000000000e+00 5.8691703506046600e-01 1.0010385872094438e-02  0.0000000000000000e+00 5.7333916638439564e-01 9.7898639137511852e-03  0.0000000000000000e+00 5.5989289249093355e-01 9.5865776171186433e-03  0.0000000000000000e+00 5.4654966230533453e-01 9.3997291506364555e-03  0.0000000000000000e+00 5.3288844851172623e-01 9.2209139912480444e-03  0.0000000000000000e+00 5.1864864452267390e-01 9.0434860633971000e-03  0.0000000000000000e+00 5.0387449134147766e-01 8.8694796309529110e-03  0.0000000000000000e+00 4.8866954355692155e-01 8.7001315355554696e-03  0.0000000000000000e+00 4.7344494068664134e-01 8.5422541573315757e-03  0.0000000000000000e+00 4.5849401826978159e-01 8.4016120227457490e-03  0.0000000000000000e+00 4.4378816106682634e-01 8.2785613417260123e-03  0.0000000000000000e+00 4.2881255202776286e-01 8.1631214432712120e-03  0.0000000000000000e+00 4.1356675987855485e-01 8.0535740708623550e-03  0.0000000000000000e+00 3.9812428400145111e-01 7.9528844064388222e-03  0.0000000000000000e+00 3.8286361080425529e-01 7.8638821882086960e-03  0.0000000000000000e+00 3.6804917288554134e-01 7.7934660010441819e-03  0.0000000000000000e+00 3.5360052803788383e-01 7.7391446091816894e-03  0.0000000000000000e+00 3.3930947729445454e-01 7.6976640641071804e-03  0.0000000000000000e+00 3.2501627256952831e-01 7.6680908880231990e-03  0.0000000000000000e+00 3.1072060535223872e-01 7.6484918141828361e-03  0.0000000000000000e+00 2.9680897062289091e-01 7.6451660656801576e-03  0.0000000000000000e+00 2.8352040075614759e-01 7.6544242207865635e-03  0.0000000000000000e+00 2.7102175393410277e-01 7.6902950586229812e-03  0.0000000000000000e+00 2.4611881898797652e-01 7.8041567407588046e-03  0.0000000000000000e+00 2.3408998025509753e-01 7.8839846732957596e-03  0.0000000000000000e+00 2.2277842103169662e-01 7.9873505444954633e-03  0.0000000000000000e+00 2.1195804128619466e-01 8.1048616639121055e-03  0.0000000000000000e+00 2.0163331213192948e-01 8.2498960789627891e-03  0.0000000000000000e+00 1.9148837293820817e-01 8.4090403545073987e-03  0.0000000000000000e+00 1.8168280295812719e-01 8.5943103034881296e-03  0.0000000000000000e+00 1.7237683755852506e-01 8.8008341470499647e-03  0.0000000000000000e+00 1.6366573229337400e-01 9.0312989643028443e-03  0.0000000000000000e+00 1.5545807614781612e-01 9.2877887488545443e-03  0.0000000000000000e+00 1.4752936582597934e-01 9.5699285303543300e-03  0.0000000000000000e+00 1.3989062899716731e-01 9.8830641961374106e-03  0.0000000000000000e+00 1.3257316471533090e-01 1.0225693162064663e-02  0.0000000000000000e+00 1.2576890153546855e-01 1.0596044306838557e-02  0.0000000000000000e+00 1.1945703987253030e-01 1.0993750847050577e-02  0.0000000000000000e+00 1.1351618057867810e-01 1.1424521106916160e-02  0.0000000000000000e+00 1.0779622575002487e-01 1.1892723199252732e-02  0.0000000000000000e+00 1.0229439925060836e-01 1.2403004102514477e-02  0.0000000000000000e+00 9.7105841089362988e-02 1.2951638439153985e-02  0.0000000000000000e+00 9.2313944967883019e-02 1.3532002789432472e-02  0.0000000000000000e+00 8.7881879766539953e-02 1.4143953277161484e-02  0.0000000000000000e+00 8.3761481087573544e-02 1.4792344545114570e-02  0.0000000000000000e+00 7.9789587478408780e-02 1.5492802961297177e-02  0.0000000000000000e+00 7.5987479593682419e-02 1.6244733328522953e-02  0.0000000000000000e+00 7.2395688530777533e-02 1.7045222004486039e-02  0.0000000000000000e+00 6.9093417175762478e-02 1.7879131265366534e-02  0.0000000000000000e+00 6.6090898776104218e-02 1.8736626210723504e-02  0.0000000000000000e+00 6.3326109060907729e-02 1.9624233152431246e-02  0.0000000000000000e+00 6.0709820439233980e-02 2.0554534816631827e-02  0.0000000000000000e+00 5.8189846799020326e-02 2.1549462180032716e-02  0.0000000000000000e+00 5.5773880878279981e-02 2.2605638569683523e-02  0.0000000000000000e+00 5.3508341281508442e-02 2.3707986041274491e-02  0.0000000000000000e+00 5.1431054398967065e-02 2.4837161269074846e-02  0.0000000000000000e+00 4.9571050544473069e-02 2.5959397469228349e-02  0.0000000000000000e+00 4.7907988949652314e-02 2.7067546445521642e-02  0.0000000000000000e+00 4.6345626978133589e-02 2.8202626652302065e-02  0.0000000000000000e+00 4.4864013373788522e-02 2.9373063270816780e-02  0.0000000000000000e+00 4.3470877789450454e-02 3.0569020526534572e-02  0.0000000000000000e+00 4.2111217915279171e-02 3.1829107933187641e-02  0.0000000000000000e+00 4.0813449298322563e-02 3.3134017388343408e-02  0.0000000000000000e+00 3.9653216495415783e-02 3.4402078617582238e-02  0.0000000000000000e+00 3.8603991212301916e-02 3.5656118492146983e-02  0.0000000000000000e+00 3.7672317045396045e-02 3.6847885846217641e-02  0.0000000000000000e+00 3.6843691524502752e-02 3.7985178961286628e-02  0.0000000000000000e+00 3.6106450285306624e-02 3.9059250721872121e-02  0.0000000000000000e+00 3.5440251655651296e-02 4.0084770253892781e-02  0.0000000000000000e+00 3.4835623704602109e-02 4.1060982996855691e-02  0.0000000000000000e+00 3.4285319471282105e-02 4.1990041883395585e-02  0.0000000000000000e+00 3.3772718245566401e-02 4.2890228010809481e-02  0.0000000000000000e+00 3.3296345608128927e-02 4.3755132680540980e-02  0.0000000000000000e+00 3.2869358421651305e-02 4.4559340904816502e-02  0.0000000000000000e+00 3.2493873236594389e-02 4.5293885499256434e-02  0.0000000000000000e+00 3.2172647930496394e-02 4.5946680081239727e-02  0.0000000000000000e+00 3.1887561159156370e-02 4.6540059272784269e-02  0.0000000000000000e+00 3.1657941765504072e-02 4.7029169965834318e-02  0.0000000000000000e+00 3.1473311382765053e-02 4.7428058928735944e-02  0.0000000000000000e+00 3.1285745912738881e-02 4.7848742741711171e-02  0.0000000000000000e+00 3.1157634539172648e-02 4.8112293100531001e-02  0.0000000000000000e+00 3.1216442584352130e-02 4.7996841852503115e-02  0.0000000000000000e+00 3.1265205661846915e-02 4.7886606573853401e-02  0.0000000000000000e+00 3.1351514329670843e-02 4.7693552285228251e-02  0.0000000000000000e+00 3.1492019347507255e-02 4.7389515375523224e-02  0.0000000000000000e+00 3.1683557700555830e-02 4.6977746440628701e-02  0.0000000000000000e+00 3.1907029098730569e-02 4.6504921172798662e-02  0.0000000000000000e+00 3.2176420494259540e-02 4.5946887324834512e-02  0.0000000000000000e+00 3.2432314200551073e-02 4.5420091584685345e-02  0.0000000000000000e+00 3.2808164340967921e-02 4.4685120556948947e-02  0.0000000000000000e+00 3.3195095341345196e-02 4.3949202833434224e-02  0.0000000000000000e+00 3.3612889063761441e-02 4.3182784255936899e-02  0.0000000000000000e+00 3.4038662549118005e-02 4.2415125902721326e-02  0.0000000000000000e+00 3.4505329691642633e-02 4.1607049474584379e-02  0.0000000000000000e+00 3.5026155209084524e-02 4.0745721336539774e-02  0.0000000000000000e+00 3.5565862193218736e-02 3.9884966586009513e-02  0.0000000000000000e+00 3.6140751253077155e-02 3.9002240746487921e-02  0.0000000000000000e+00 3.6760856957503897e-02 3.8091787148325749e-02  0.0000000000000000e+00 3.7441365076652799e-02 3.7143798357437564e-02  0.0000000000000000e+00 3.8201928940825067e-02 3.6147362480064275e-02  0.0000000000000000e+00 3.9043833442334697e-02 3.5109220326062306e-02  0.0000000000000000e+00 3.9953990284144203e-02 3.4054196543321646e-02  0.0000000000000000e+00 4.0935801299294049e-02 3.2991401290496533e-02  0.0000000000000000e+00 4.1983264145682903e-02 3.1933130631581645e-02  0.0000000000000000e+00 4.3077496295661120e-02 3.0900922438925473e-02  0.0000000000000000e+00 4.4204123995815234e-02 2.9906171848641885e-02  0.0000000000000000e+00 4.5350891092439109e-02 2.8957154125828225e-02  0.0000000000000000e+00 4.6522310358868252e-02 2.8047214816083237e-02  0.0000000000000000e+00 4.7732246864604498e-02 2.7166007890982575e-02  0.0000000000000000e+00 4.9007070052417223e-02 2.6298174710530135e-02  0.0000000000000000e+00 5.0371165860437085e-02 2.5433489801975562e-02  0.0000000000000000e+00 5.1858775773337633e-02 2.4561283680798785e-02  0.0000000000000000e+00 5.3485431006937360e-02 2.3687316354845438e-02  0.0000000000000000e+00 5.5252571702803635e-02 2.2815166371326710e-02  0.0000000000000000e+00 5.7112589311857857e-02 2.1972944672411277e-02  0.0000000000000000e+00 5.9028326891852979e-02 2.1174093593283070e-02  0.0000000000000000e+00 6.0969497691934479e-02 2.0424673478944010e-02  0.0000000000000000e+00 6.2940612143301614e-02 1.9719522171080309e-02  0.0000000000000000e+00 6.4971491434131778e-02 1.9048360436625531e-02  0.0000000000000000e+00 6.7170581016254644e-02 1.8381114226637778e-02  0.0000000000000000e+00 6.9544344963182222e-02 1.7722656480579357e-02  0.0000000000000000e+00 7.2096729487655373e-02 1.7080564326133800e-02  0.0000000000000000e+00 7.4879441049072265e-02 1.6443409165787369e-02  0.0000000000000000e+00 7.7842743253360491e-02 1.5831007437690971e-02  0.0000000000000000e+00 8.0904404999661644e-02 1.5254028562070695e-02  0.0000000000000000e+00 8.3959844732244424e-02 1.4724693502825667e-02  0.0000000000000000e+00 8.7213909043822258e-02 1.4211827307474469e-02  0.0000000000000000e+00 9.0609477867901314e-02 1.3725708777970804e-02  0.0000000000000000e+00 9.4296300397252328e-02 1.3245584521770931e-02  0.0000000000000000e+00 9.8305559752638369e-02 1.2786333681199653e-02  0.0000000000000000e+00 1.0265879013994944e-01 1.2334830400192150e-02  0.0000000000000000e+00 1.0726623162154396e-01 1.1909625660531539e-02  0.0000000000000000e+00 1.1200990956285606e-01 1.1514066776120711e-02  0.0000000000000000e+00 1.1689474516483600e-01 1.1145277889054799e-02  0.0000000000000000e+00 1.2204853365465938e-01 1.0796159418930012e-02  0.0000000000000000e+00 1.3375775061085277e-01 1.0143275535944287e-02  0.0000000000000000e+00 1.4031309233003861e-01 9.8415258702245021e-03  0.0000000000000000e+00 1.4718528293723457e-01 9.5638124603915162e-03  0.0000000000000000e+00 1.5428814238771618e-01 9.3064162116532432e-03  0.0000000000000000e+00 1.6171431573656936e-01 9.0699417940305286e-03  0.0000000000000000e+00 1.6967453632430585e-01 8.8506735575773904e-03  0.0000000000000000e+00 1.7831448256732260e-01 8.6493335418344301e-03  0.0000000000000000e+00 1.8759005615290067e-01 8.4657505283248849e-03  0.0000000000000000e+00 1.9731812223783066e-01 8.3011205015526973e-03  0.0000000000000000e+00 2.0738868042096120e-01 8.1544694028663194e-03  0.0000000000000000e+00 2.1791190910614752e-01 8.0275755287642393e-03  0.0000000000000000e+00 2.2909719867540831e-01 7.9175576674977224e-03  0.0000000000000000e+00 2.4105500296570739e-01 7.8285807970638228e-03  0.0000000000000000e+00 2.5368855116729538e-01 7.7577837098469216e-03  0.0000000000000000e+00 2.6669916962677476e-01 7.7023588001568230e-03  0.0000000000000000e+00 2.8013043335814164e-01 7.6640023903578776e-03  0.0000000000000000e+00 2.9420193801802252e-01 7.6447718247834593e-03  0.0000000000000000e+00 3.0898363013371893e-01 7.6437556168984329e-03  0.0000000000000000e+00 3.2449309347872946e-01 7.6665115238527459e-03  0.0000000000000000e+00 3.4032445047854354e-01 7.7005173860335450e-03  0.0000000000000000e+00 3.5641545097665150e-01 7.7506065977599346e-03  0.0000000000000000e+00 3.7288801408919248e-01 7.8179959049803852e-03  0.0000000000000000e+00 3.8998354815766123e-01 7.9067162487269881e-03  0.0000000000000000e+00 4.0762539743231818e-01 8.0175062919477878e-03  0.0000000000000000e+00 4.2539060386411909e-01 8.1421154091449750e-03  0.0000000000000000e+00 4.4300805720951508e-01 8.2779640572521133e-03  0.0000000000000000e+00 4.6067839361782337e-01 8.4288141980325641e-03  0.0000000000000000e+00 4.7853300418009753e-01 8.6003099011740212e-03  0.0000000000000000e+00 4.9669312288717121e-01 8.7961092856236912e-03  0.0000000000000000e+00 5.1464042669386945e-01 9.0038448548864676e-03  0.0000000000000000e+00 5.3204169860650208e-01 9.2182815343141867e-03  0.0000000000000000e+00 5.4890669141581372e-01 9.4411969243784147e-03  0.0000000000000000e+00 5.6549431743174050e-01 9.6789398433285191e-03  0.0000000000000000e+00 5.8201425271256935e-01 9.9385095453637922e-03  0.0000000000000000e+00 5.9831190639817911e-01 1.0216089700907375e-02  0.0000000000000000e+00 6.1383882706504522e-01 1.0496634105992208e-02  0.0000000000000000e+00 6.2838129576936808e-01 1.0774466397332916e-02  0.0000000000000000e+00 6.4214586400754325e-01 1.1052694415289839e-02  0.0000000000000000e+00 6.5525608566599813e-01 1.1336585872109015e-02  0.0000000000000000e+00 6.6797067598917659e-01 1.1634802266539054e-02  0.0000000000000000e+00 6.8036022276250352e-01 1.1947122169499195e-02  0.0000000000000000e+00 6.9213792311733702e-01 1.2262926695417476e-02  0.0000000000000000e+00 7.0307323992459270e-01 1.2573320127161990e-02  0.0000000000000000e+00 7.1287192554452439e-01 1.2862709643494789e-02  0.0000000000000000e+00 7.2168950736371185e-01 1.3136021484526405e-02  0.0000000000000000e+00 7.2961295026521278e-01 1.3393743924572824e-02  0.0000000000000000e+00 7.3684876106458497e-01 1.3639438939488765e-02  0.0000000000000000e+00 7.4359227128414163e-01 1.3879252298738107e-02  0.0000000000000000e+00 7.4988461239071169e-01 1.4116427894047294e-02  0.0000000000000000e+00 7.5577858309645862e-01 1.4349509406307292e-02  0.0000000000000000e+00 7.6129608460559717e-01 1.4576127134296537e-02  0.0000000000000000e+00 7.6625344947449325e-01 1.4787323100155920e-02  0.0000000000000000e+00 7.7060851432849264e-01 1.4979283554338302e-02  0.0000000000000000e+00 7.7437229963695253e-01 1.5149182300776281e-02  0.0000000000000000e+00 7.7752922616062103e-01 1.5294454378342282e-02  0.0000000000000000e+00 7.8006280437656184e-01 1.5413283790120941e-02  0.0000000000000000e+00 6.9712509574164228e-01 1.2403796121674915e-02  0.0000000000000000e+00 7.0705849922267819e-02 1.7431211088031348e-02  0.0000000000000000e+00 6.2874758670172204e-01 1.0773218218558972e-02  0.0000000000000000e+00 1.2520807885144228e-01 1.0607512620880218e-02  0.0000000000000000e+00 7.8027926971585204e-01 1.5424350932546731e-02  0.0000000000000000e+00 3.7512340073846476e-02 3.7093061994071912e-02  0.0000000000000000e+00 4.5044393340185418e-01 8.3344546794054536e-03  0.0000000000000000e+00 2.5209096079130161e-01 7.7759661098688836e-03  0.0000000000000000e+00 3.1588858194096389e-02 4.7240141929192958e-02  0.0000000000000000e+00 5.9623387066517784e-02 2.0978503338420447e-02  0.0000000000000000e+00 5.7270885243466851e-01 9.7909553688711893e-03  0.0000000000000000e+00 4.9974600724587009e-02 2.5695705792704714e-02  0.0000000000000000e+00 4.8750999138213250e-02 2.6505164055100765e-02  0.0000000000000000e+00 4.6983857518178945e-01 8.5158786522179994e-03  0.0000000000000000e+00 8.1856196176344875e-02 1.5122302104110476e-02  0.0000000000000000e+00 6.9100886887820845e-01 1.2223929863823502e-02  0.0000000000000000e+00 4.1679895507422217e-02 3.2256827631022236e-02  0.0000000000000000e+00 3.6091506975630752e-02 3.9109476449974701e-02  0.0000000000000000e+00 7.4045900060582415e-01 1.3762637651167118e-02  0.0000000000000000e+00 3.4935028273298496e-01 7.7285283244181340e-03  0.0000000000000000e+00 1.1055634392713040e-01 1.1661840421740573e-02  0.0000000000000000e+00 2.4746432211937530e-01 7.7922063991152186e-03  0.0000000000000000e+00 7.6112960562768328e-01 1.4566649026080710e-02  0.0000000000000000e+00 3.3313289264505962e-02 4.3770676984334879e-02  0.0000000000000000e+00 1.5059643180964630e-01 9.4583498674790378e-03  0.0000000000000000e+00 1.9287601486476949e-01 8.3766112435232874e-03  0.0000000000000000e+00 7.7858577304429022e-01 1.5343122025912266e-02  0.0000000000000000e+00 7.4614315980281476e-01 1.3975528431244047e-02  0.0000000000000000e+00 8.9249903627831764e-02 1.3921182819005385e-02  0.0000000000000000e+00 3.3788686997773494e-02 4.2899948292906394e-02  0.0000000000000000e+00 3.6030320755356987e-01 7.7641412502689796e-03  0.0000000000000000e+00 5.5485740855875376e-01 9.5158629801402467e-03  0.0000000000000000e+00 3.1843103521450013e-02 4.6685982805276735e-02  0.0000000000000000e+00 1.8576500263048956e-01 8.5147572053689193e-03  0.0000000000000000e+00 1.5833027741954378e-01 9.1767059728044276e-03  0.0000000000000000e+00 7.8394464996669455e-01 1.5599986855301532e-02  0.0000000000000000e+00 4.3047086182248992e-02 3.0970321460433534e-02  0.0000000000000000e+00 6.0288399267132316e-02 2.0691676035227369e-02  0.0000000000000000e+00 7.6774649221610924e-01 1.4853587244110143e-02  0.0000000000000000e+00 6.4781687346328154e-01 1.1174356216941165e-02  0.0000000000000000e+00 1.0590154954204561e-01 1.2036492171589084e-02  0.0000000000000000e+00 3.2323249551636762e-02 4.5695006809188747e-02  0.0000000000000000e+00 3.0487907537821546e-01 7.6467946368155015e-03  0.0000000000000000e+00 7.1534509156411574e-01 1.2931889776334691e-02  0.0000000000000000e+00 4.0523117920315493e-01 7.9994360238166140e-03  0.0000000000000000e+00 3.1476996815023139e-02 4.7473078351161921e-02  0.0000000000000000e+00 3.5378364875425540e-02 4.0214109401727781e-02  0.0000000000000000e+00 2.1701208655745416e-01 8.0482513261536884e-03  0.0000000000000000e+00 6.7627862140134096e-02 1.8290892675047295e-02  0.0000000000000000e+00 7.2518994054195896e-01 1.3249613810213660e-02  0.0000000000000000e+00 5.9232122844807411e-01 1.0103760452993278e-02  0.0000000000000000e+00 4.1728592297423145e-01 8.0855146886882490e-03  0.0000000000000000e+00 3.8908931347520027e-02 3.5303536805832696e-02  0.0000000000000000e+00 3.0252684857260104e-01 7.6433760133642423e-03  0.0000000000000000e+00 7.9730520492512003e-02 1.5476859404741026e-02  0.0000000000000000e+00 5.1054081309994082e-01 8.9479773652227888e-03  0.0000000000