<?xml version="1.0"?>
<VTKFile type="UnstructuredGrid"  version="0.1"  >
<UnstructuredGrid>
<Piece  NumberOfPoints="25605" NumberOfCells="50684">
<Points>
<DataArray  type="Float64"  NumberOfComponents="3"  format="ascii">500 250 0  0 250 0  250 500 0  250 0 0  252.9976310880008 499.9820277697183 0  255.994831180465 499.9281136629446 0  258.9911693467 499.8382654314166 0  261.9862147844171 499.7124959931758 0  264.9795368730259 499.550823430959 0  267.9707052380909 499.3532709896657 0  270.9592898147818 499.1198670729815 0  273.944860911003 498.850645239173 0  276.9269892620302 498.5456441969613 0  279.9052461102784 498.204907798141 0  282.879203246639 497.8284850332306 0  285.8484330760252 497.4164300243493 0  288.812508703066 496.9688020138868 0  291.7710039592635 496.4856653605544 0  294.7234934645729 495.9670895309458 0  297.6695527219374 495.4131490839284 0  300.6087581526373 494.8239236640241 0  303.5406871632312 494.1994979890193 0  306.4649182085955 493.5399618372653 0  309.3810308492501 492.8454100354388 0  312.2886058121011 492.1159424449053 0  315.1872250543244 491.3516639464432 0  318.0764718164482 490.552684426976 0  320.9559306911491 489.7191187614222 0  323.8251876776197 488.8510867975364 0  326.6838302398962 487.9487133391117 0  329.5314473625203 487.0121281293906 0  332.3676296259557 486.0414658270902 0  335.1919692490408 485.0368659922747 0  338.0040601519906 483.9984730650284 0  340.8034980252745 482.926436340691 0  343.5898803648273 481.8209099570125 0  346.3628065522297 480.6820528636277 0  349.1218779058009 479.5100288014175 0  351.866697726272 478.3050062840155 0  354.5968713702315 477.0671585667096 0  357.3120063039883 475.7966636224122 0  360.0117121560444 474.4937041177227 0  362.6956007624657 473.158467392091 0  365.3632862410136 471.7911454221605 0  368.0143850392318 470.39193479756 0  370.6485159774368 468.9610366993228 0  373.2653003309281 467.4986568563726 0  375.8643618621848 466.0050055277077 0  378.4453268904447 464.4802974634425 0  381.0078243277097 462.9247518841339 0  383.5514857466806 461.3385924407896 0  386.0759454147861 459.7220471945478 0  388.5808403686633 458.0753485704519 0  391.0658104727646 456.398733318938 0  393.5304984398443 454.6924425024281 0  395.9745499014433 452.9567214483695 0  398.3976134594079 451.1918197133078 0  400.7993407313268 449.3979910505549 0  403.1793863983767 447.5754933756127 0  405.5374082633365 445.7245887228382 0  407.8730672875487 443.8455432173283 0  410.1860276678057 441.9386270139729 0  412.4759568502628 440.0041142859584 0  414.7425255888164 438.0422831775295 0  416.9854079982472 436.0534157591817 0  419.2042816111551 434.0377979776246 0  421.3988273934515 431.9957196423856 0  423.5687298230711 429.9274743545459 0  425.7136769203488 427.833359477718 0  427.8333602660664 425.7136761224903 0  429.9274751166117 423.5687290330868 0  431.9957203865596 421.3988266032683 0  434.0377986976932 419.2042808279605 0  436.0534164531565 416.9854072250276 0  438.0422838486247 414.7425248228072 0  440.0041149354581 412.4759560907189 0  441.9386276454979 410.1860269110977 0  443.8455438341414 407.8730665301906 0  445.7245893245478 405.5374075061595 0  447.5754939498422 403.1793856577179 0  449.3979916037435 400.7993399998601 0  451.1918202566634 398.3976127227471 0  452.9567219786559 395.9745491641559 0  454.6924430171686 393.53049770576 0  456.3987338202434 391.0658097392857 0  458.0753490553683 388.5808396405746 0  459.7220476673142 386.0759446861523 0  461.3385928978555 383.5514850233965 0  462.924752323721 381.0078236132563 0  464.4802978831972 378.4453261895309 0  466.005005928237 375.8643611748071 0  467.4986572464557 373.2652996426359 0  468.9610370690891 370.64851530636 0  470.3919351512159 368.0143843787793 0  471.7911457549822 365.363285601149 0  473.1584677051019 362.6956001426453 0  474.4937044170927 360.0117115451396 0  475.7966639080153 357.3120057030471 0  477.0671588375024 354.5968707823731 0  478.3050065468899 351.8666971371142 0  479.5100290514928 349.1218773267684 0  480.68205310082 346.3628059844174 0  481.8209101826405 343.5898798059497 0  482.926436550004 340.8034974883511 0  483.9984732613996 338.0040596298491 0  485.0368661774559 335.1919687381426 0  486.0414660017697 332.3676291253755 0  487.0121282892932 329.5314468859938 0  487.9487134870012 326.6838297809975 0  488.8510869337421 323.825187236945 0  489.7191188882317 320.9559302627332 0  490.5526845449373 318.0764713996244 0  491.3516640573307 315.1872246437704 0  492.1159425458163 312.2886054198597 0  492.8454101279934 309.3810304707378 0  493.5399619220304 306.4649178429931 0  494.1994980644915 303.5406868190015 0  494.8239237308971 300.6087578291331 0  495.4131491423161 297.6695524213444 0  495.9670895813101 294.7234931875826 0  496.4856654030534 291.7710037084818 0  496.9688020494549 288.8125084767419 0  497.416430053242 285.8484328766153 0  497.8284850586459 282.8792030550702 0  498.2049078189591 279.9052459374942 0  498.5456442137286 276.9269891072627 0  498.850645253019 273.9448607671062 0  499.1198670835989 270.9592896885852 0  499.3532709967772 267.9707051394148 0  499.5508234355897 264.9795367958812 0  499.7124959959075 261.9862147275054 0  499.8382654331632 258.9911692981657 0  499.928113663985 255.99483113709 0  499.9820277699785 252.9976310663071 0  499.9820277697257 247.0023689126091 0  499.9281136630343 244.0051688232745 0  499.8382654314717 241.0088306548307 0  499.7124959931211 238.0137852144455 0  499.5508234310553 235.0204631285785 0  499.3532709900699 232.0292947675166 0  499.119867073792 229.0407101948513 0  498.8506452406773 226.0551391046306 0  498.5456441987692 223.0730107546571 0  498.2049078002218 220.0947539069917 0  497.8284850356648 217.120796771709 0  497.4164300267099 214.151566940267 0  496.968802017216 211.187491318118 0  496.4856653659872 208.2289960727951 0  495.9670895372035 205.2765065698432 0  495.4131490907147 202.330447313 0  494.8239236713522 199.3912418828135 0  494.1994979969027 196.4593128727251 0  493.5399618460726 193.5350818293917 0  492.8454100458835 190.6189691934644 0  492.1159424557956 187.7113942302294 0  491.3516639574156 184.8127749862999 0  490.5526844387521 181.923528225163 0  489.7191187738694 179.0440693509028 0  488.851086810667 176.1748123648628 0  487.948713352938 173.3161698030064 0  487.0121281439243 170.4685526807917 0  486.0414658415049 167.6323704153526 0  485.0368660060558 164.8080307889799 0  483.9984730779887 161.9959398824702 0  482.9264363544502 159.1965020100202 0  481.8209099702043 156.4101196678486 0  480.6820528745703 153.6371934739656 0  479.5100288124721 150.8781221197951 0  478.3050062927852 148.1333022933829 0  477.0671585723666 145.403128642049 0  475.796663627405 142.687993706517 0  474.4937041236649 139.9882878560814 0  473.1584673984938 137.3043992502131 0  471.7911454319914 134.6367137778867 0  470.3919348096422 131.9856149833316 0  468.9610367113798 129.3514840444451 0  467.49865687022 126.7346996935054 0  466.0050055427385 124.1356381636107 0  464.4802974781252 121.5546731340727 0  462.9247519005733 118.992175699009 0  461.3385924615702 116.4485142862037 0  459.722047215144 113.924054616957 0  458.0753485880027 111.4191596576888 0  456.3987333337139 108.9341895488548 0  454.692442514023 106.4695015766915 0  452.95672145825 104.0254501122942 0  451.1918197247282 101.6023865560754 0  449.3979910627008 99.20065928473332 0  447.5754933882043 96.82061361786421 0  445.7245887341124 94.46259175085058 0  443.8455432269008 92.12693272420489 0  441.9386270210269 89.81397234064673 0  440.0041142971544 87.52404316283014 0  438.0422831897421 85.25747442512349 0  436.0534157701649 83.01459201399018 0  434.0377979907771 80.79571840315057 0  431.9957196541004 78.60117261898753 0  429.9274743620823 76.43127018474144 0  427.8333594859367 74.28632308796901 0  425.7136761283247 72.16663973969838 0  423.5687290359737 70.07252488617331 0  421.3988265987173 68.00427960915448 0  419.2042808240311 65.962201298694 0  416.9854072196475 63.94658354201471 0  414.742524818212 61.95771614734943 0  412.4759560828471 59.99588505781063 0  410.1860269003736 58.06137234555209 0  407.8730665183855 56.15445615624427 0  405.5374074948106 54.27541066643354 0  403.1793856410161 52.424506037209 0  400.7993399855741 50.60200838545225 0  398.3976127114923 48.80817973503514 0  395.9745491514178 47.04327801218227 0  393.5304976958927 45.30755697591243 0  391.0658097308475 43.60126617398947 0  388.5808396359472 41.92465094154986 0  386.0759446832285 40.27795233078868 0  383.5514850239504 38.66140710249451 0  381.007823619977 37.07524768041412 0  378.4453262000283 35.51970212308933 0  375.8643611921311 33.99499408185753 0  373.2652996617874 32.50134276439832 0  370.6485153256615 31.03896294154612 0  368.0143843882092 29.60806485383361 0  365.3632855907917 28.2088542396306 0  362.6956001322776 26.84153228966238 0  360.0117115354126 25.50629557814059 0  357.3120057003284 24.20333609069269 0  354.596870775138 22.93284115916481 0  351.8666971306181 21.69499345021163 0  349.121877320111 20.48997094563194 0  346.3628059771881 19.31794689616012 0  343.5898798100648 18.17908981902079 0  340.8034974914794 17.07356345121562 0  338.0040596332272 16.00152673987083 0  335.1919687416658 14.9631338238211 0  332.3676291322006 13.95853400061199 0  329.5314468917599 12.98787171264172 0  326.6838297822748 12.05128651341042 0  323.8251872378164 11.14891306652726 0  320.9559302656854 10.28088111264219 0  318.076471404611 9.447315456473888 0  315.1872246503818 8.648335944454999 0  312.2886054290304 7.88405745654299 0  309.3810304838133 7.154589875203868 0  306.4649178487239 6.460038079298243 0  303.5406868253978 5.800501936910877 0  300.6087578339258 5.176076270093546 0  297.669552426172 4.586850858621602 0  294.7234931936628 4.0329104197954 0  291.7710037123022 3.514334597594029 0  288.8125084726372 3.031197949900047 0  285.8484328697872 2.58356994576863 0  282.8792030484304 2.171514940473202 0  279.905245932244 1.795092180408318 0  276.9269891008954 1.454
[...]
<PointData  Vectors="f_12"> 
<DataArray  type="Float64"  Name="f_12"  NumberOfComponents="3" format="ascii">0.0000000000000000e+00 2.6354166666666667e-01 4.5918888888888887e-01  0.0000000000000000e+00 2.3854166666666665e-01 4.7418888888888888e-01  0.0000000000000000e+00 2.6216666666666666e-01 4.3668888888888890e-01  0.0000000000000000e+00 2.6466666666666666e-01 4.9668888888888890e-01  0.0000000000000000e+00 2.6234483305128981e-01 4.3660111662388262e-01  0.0000000000000000e+00 2.6251958300714695e-01 4.3651767031392158e-01  0.0000000000000000e+00 2.6269088079000402e-01 4.3643856195671787e-01  0.0000000000000000e+00 2.6285869270009282e-01 4.3636380292617527e-01  0.0000000000000000e+00 2.6302298709167810e-01 4.3629340397098304e-01  0.0000000000000000e+00 2.6318373438208986e-01 4.3622737521298627e-01  0.0000000000000000e+00 2.6334090705949603e-01 4.3616572614568766e-01  0.0000000000000000e+00 2.6349447968945422e-01 4.3610846563285799e-01  0.0000000000000000e+00 2.6364442891983791e-01 4.3605560190739256e-01  0.0000000000000000e+00 2.6379073348583576e-01 4.3600714256980361e-01  0.0000000000000000e+00 2.6393337421180652e-01 4.3596309458750204e-01  0.0000000000000000e+00 2.6407233401319841e-01 4.3592346429368622e-01  0.0000000000000000e+00 2.6420759789815107e-01 4.3588825738613046e-01  0.0000000000000000e+00 2.6433915296516475e-01 4.3585747892684445e-01  0.0000000000000000e+00 2.6446698840128630e-01 4.3583113334123819e-01  0.0000000000000000e+00 2.6459109548047194e-01 4.3580922441715936e-01  0.0000000000000000e+00 2.6471146755813918e-01 4.3579175530462688e-01  0.0000000000000000e+00 2.6482810006595470e-01 4.3577872851530963e-01  0.0000000000000000e+00 2.6494099050525266e-01 4.3577014592215918e-01  0.0000000000000000e+00 2.6505013843905401e-01 4.3576600875915872e-01  0.0000000000000000e+00 2.6515554548306319e-01 4.3576631762113721e-01  0.0000000000000000e+00 2.6525721529561108e-01 4.3577107246368596e-01  0.0000000000000000e+00 2.6535515356605960e-01 4.3578027260315827e-01  0.0000000000000000e+00 2.6544936800261520e-01 4.3579391671678375e-01  0.0000000000000000e+00 2.6553986831849735e-01 4.3581200284285593e-01  0.0000000000000000e+00 2.6562666621713410e-01 4.3583452838099856e-01  0.0000000000000000e+00 2.6570977537617346e-01 4.3586149009248637e-01  0.0000000000000000e+00 2.6578921143095419e-01 4.3589288410085936e-01  0.0000000000000000e+00 2.6586499195590069e-01 4.3592870589234467e-01  0.0000000000000000e+00 2.6593713644546402e-01 4.3596895031652572e-01  0.0000000000000000e+00 2.6600566629410083e-01 4.3601361158724772e-01  0.0000000000000000e+00 2.6607060477435351e-01 4.3606268328310260e-01  0.0000000000000000e+00 2.6613197701501551e-01 4.3611615834868667e-01  0.0000000000000000e+00 2.6618980997751468e-01 4.3617402909554470e-01  0.0000000000000000e+00 2.6624413243122153e-01 4.3623628720301888e-01  0.0000000000000000e+00 2.6629497492833765e-01 4.3630292371977680e-01  0.0000000000000000e+00 2.6634236977735326e-01 4.3637392906507977e-01  0.0000000000000000e+00 2.6638635101553215e-01 4.3644929303008084e-01  0.0000000000000000e+00 2.6642695438036862e-01 4.3652900477896400e-01  0.0000000000000000e+00 2.6646421728056835e-01 4.3661305285099922e-01  0.0000000000000000e+00 2.6649817876566484e-01 4.3670142516200472e-01  0.0000000000000000e+00 2.6652887949473164e-01 4.3679410900564702e-01  0.0000000000000000e+00 2.6655636170468672e-01 4.3689109105619628e-01  0.0000000000000000e+00 2.6658066917710760e-01 4.3699235736969844e-01  0.0000000000000000e+00 2.6660184720464308e-01 4.3709789338656241e-01  0.0000000000000000e+00 2.6661994255627997e-01 4.3720768393296150e-01  0.0000000000000000e+00 2.6663500344210106e-01 4.3732171322359370e-01  0.0000000000000000e+00 2.6664707947702160e-01 4.3743996486309955e-01  0.0000000000000000e+00 2.6665622164402097e-01 4.3756242184937477e-01  0.0000000000000000e+00 2.6666248225645883e-01 4.3768906657643336e-01  0.0000000000000000e+00 2.6666591491960318e-01 4.3781988083540219e-01  0.0000000000000000e+00 2.6666657449166498e-01 4.3795484581804123e-01  0.0000000000000000e+00 2.6666451704406224e-01 4.3809394211950969e-01  0.0000000000000000e+00 2.6665979982105265e-01 4.3823714974088251e-01  0.0000000000000000e+00 2.6665248119877089e-01 4.3838444809186400e-01  0.0000000000000000e+00 2.6664262064363697e-01 4.3853581599424823e-01  0.0000000000000000e+00 2.6663027867026085e-01 4.3869123168418300e-01  0.0000000000000000e+00 2.6661551679860412e-01 4.3885067281717793e-01  0.0000000000000000e+00 2.6659839751094105e-01 4.3901411646906596e-01  0.0000000000000000e+00 2.6657898420814435e-01 4.3918153913992086e-01  0.0000000000000000e+00 2.6655734116548419e-01 4.3935291675783966e-01  0.0000000000000000e+00 2.6653353348790210e-01 4.3952822468323927e-01  0.0000000000000000e+00 2.6650762706531428e-01 4.3970743770999904e-01  0.0000000000000000e+00 2.6647968852687309e-01 4.3989053007165119e-01  0.0000000000000000e+00 2.6644978519535262e-01 4.4007747544395226e-01  0.0000000000000000e+00 2.6641798504148306e-01 4.4026824694620803e-01  0.0000000000000000e+00 2.6638435663653259e-01 4.4046281715142011e-01  0.0000000000000000e+00 2.6634896910649469e-01 4.4066115808489992e-01  0.0000000000000000e+00 2.6631189208516415e-01 4.4086324122860282e-01  0.0000000000000000e+00 2.6627319566645030e-01 4.4106903752829085e-01  0.0000000000000000e+00 2.6623295035759931e-01 4.4127851739469326e-01  0.0000000000000000e+00 2.6619122703130182e-01 4.4149165070993884e-01  0.0000000000000000e+00 2.6614809687839558e-01 4.4170840683019225e-01  0.0000000000000000e+00 2.6610363136011300e-01 4.4192875459024172e-01  0.0000000000000000e+00 2.6605790216019309e-01 4.4215266230841332e-01  0.0000000000000000e+00 2.6601098113695471e-01 4.4238009779146747e-01  0.0000000000000000e+00 2.6596294027509010e-01 4.4261102834079336e-01  0.0000000000000000e+00 2.6591385163834186e-01 4.4284542075445932e-01  0.0000000000000000e+00 2.6586378732213378e-01 4.4308324132983046e-01  0.0000000000000000e+00 2.6581281940470008e-01 4.4332445587368263e-01  0.0000000000000000e+00 2.6576101989972828e-01 4.4356902970556727e-01  0.0000000000000000e+00 2.6570846070932252e-01 4.4381692766035891e-01  0.0000000000000000e+00 2.6565521357591665e-01 4.4406811409653119e-01  0.0000000000000000e+00 2.6560135003550001e-01 4.4432255289914557e-01  0.0000000000000000e+00 2.6554694137047996e-01 4.4458020748558646e-01  0.0000000000000000e+00 2.6549205856313940e-01 4.4484104080964926e-01  0.0000000000000000e+00 2.6543677224843376e-01 4.4510501537006492e-01  0.0000000000000000e+00 2.6538115266807627e-01 4.4537209321437887e-01  0.0000000000000000e+00 2.6532526962551689e-01 4.4564223594005298e-01  0.0000000000000000e+00 2.6526919243851016e-01 4.4591540470889890e-01  0.0000000000000000e+00 2.6521298989568060e-01 4.4619156024410150e-01  0.0000000000000000e+00 2.6515673021072528e-01 4.4647066284061837e-01  0.0000000000000000e+00 2.6510048097802091e-01 4.4675267237095934e-01  0.0000000000000000e+00 2.6504430912941934e-01 4.4703754828728276e-01  0.0000000000000000e+00 2.6498828089024173e-01 4.4732524962987907e-01  0.0000000000000000e+00 2.6493246173575119e-01 4.4761573503602847e-01  0.0000000000000000e+00 2.6487691635023070e-01 4.4790896273813191e-01  0.0000000000000000e+00 2.6482170858355092e-01 4.4820489057773416e-01  0.0000000000000000e+00 2.6476690141080317e-01 4.4850347600669566e-01  0.0000000000000000e+00 2.6471255689148582e-01 4.4880467609378666e-01  0.0000000000000000e+00 2.6465873612859914e-01 4.4910844753546497e-01  0.0000000000000000e+00 2.6460549923049798e-01 4.4941474665498810e-01  0.0000000000000000e+00 2.6455290527121361e-01 4.4972352941379068e-01  0.0000000000000000e+00 2.6450101225306477e-01 4.5003475141389082e-01  0.0000000000000000e+00 2.6444987706825396e-01 4.5034836791055910e-01  0.0000000000000000e+00 2.6439955546332716e-01 4.5066433381244320e-01  0.0000000000000000e+00 2.6435010200287473e-01 4.5098260369071391e-01  0.0000000000000000e+00 2.6430157003462479e-01 4.5130313178458586e-01  0.0000000000000000e+00 2.6425401165487444e-01 4.5162587200991655e-01  0.0000000000000000e+00 2.6420747767560182e-01 4.5195077796213123e-01  0.0000000000000000e+00 2.6416201759104602e-01 4.5227780292856051e-01  0.0000000000000000e+00 2.6411767954671889e-01 4.5260689989006875e-01  0.0000000000000000e+00 2.6407451030840534e-01 4.5293802152867391e-01  0.0000000000000000e+00 2.6403255523180441e-01 4.5327112023746602e-01  0.0000000000000000e+00 2.6399185823394700e-01 4.5360614812405803e-01  0.0000000000000000e+00 2.6395246176489878e-01 4.5394305701893967e-01  0.0000000000000000e+00 2.6391440678068362e-01 4.5428179848177946e-01  0.0000000000000000e+00 2.6387773271690002e-01 4.5462232381019618e-01  0.0000000000000000e+00 2.6384247746402151e-01 4.5496458404209783e-01  0.0000000000000000e+00 2.6380867734236679e-01 4.5530852997052107e-01  0.0000000000000000e+00 2.6377636707982316e-01 4.5565411214182083e-01  0.0000000000000000e+00 2.6374557978898455e-01 4.5600128086960551e-01  0.0000000000000000e+00 2.6371634694629453e-01 4.5634998623924555e-01  0.0000000000000000e+00 2.6368869837206066e-01 4.5670017811375069e-01  0.0000000000000000e+00 2.6366266221130885e-01 4.5705180614225577e-01  0.0000000000000000e+00 2.6363826491562919e-01 4.5740481977031544e-01  0.0000000000000000e+00 2.6361553122672221e-01 4.5775916824171103e-01  0.0000000000000000e+00 2.6359448416031972e-01 4.5811480061011411e-01  0.0000000000000000e+00 2.6357514499176526e-01 4.5847166574251852e-01  0.0000000000000000e+00 2.6355753324235043e-01 4.5882971232783265e-01  0.0000000000000000e+00 2.6352756124152360e-01 4.5954914378628403e-01  0.0000000000000000e+00 2.6351523115595871e-01 4.5991042522020492e-01  0.0000000000000000e+00 2.6350468880181649e-01 4.6027268124736503e-01  0.0000000000000000e+00 2.6349594476607341e-01 4.6063585978336180e-01  0.0000000000000000e+00 2.6348900782406803e-01 4.6099990861052781e-01  0.0000000000000000e+00 2.6348388493388131e-01 4.6136477538708481e-01  0.0000000000000000e+00 2.6348058123194218e-01 4.6173040765329298e-01  0.0000000000000000e+00 2.6347910002975006e-01 4.6209675283911289e-01  0.0000000000000000e+00 2.6347944281176328e-01 4.6246375827236691e-01  0.0000000000000000e+00 2.6348160923446140e-01 4.6283137118604323e-01  0.0000000000000000e+00 2.6348559712655706e-01 4.6319953872521386e-01  0.0000000000000000e+00 2.6349140249037517e-01 4.6356820795525550e-01  0.0000000000000000e+00 2.6349901950441484e-01 4.6393732587019820e-01  0.0000000000000000e+00 2.6350844052704109e-01 4.6430683939917383e-01  0.0000000000000000e+00 2.6351965610134981e-01 4.6467669541439155e-01  0.0000000000000000e+00 2.6353265496117989e-01 4.6504684073860741e-01  0.0000000000000000e+00 2.6354742403828130e-01 4.6541722215281067e-01  0.0000000000000000e+00 2.6356394847064862e-01 4.6578778640425478e-01  0.0000000000000000e+00 2.6358221161198153e-01 4.6615848021397965e-01  0.0000000000000000e+00 2.6360219504227717e-01 4.6652925028429665e-01  0.0000000000000000e+00 2.6362387857962799e-01 4.6690004330758750e-01  0.0000000000000000e+00 2.6364724029296038e-01 4.6727080597181042e-01  0.0000000000000000e+00 2.6367225651601961e-01 4.6764148496870678e-01  0.0000000000000000e+00 2.6369890186259370e-01 4.6801202700356448e-01  0.0000000000000000e+00 2.6372714924256346e-01 4.6838237880078532e-01  0.0000000000000000e+00 2.6375696987919345e-01 4.6875248711193995e-01  0.0000000000000000e+00 2.6378833332743146e-01 4.6912229872287614e-01  0.0000000000000000e+00 2.6382120749353510e-01 4.6949176046380137e-01  0.0000000000000000e+00 2.6385555865530902e-01 4.6986081921402961e-01  0.0000000000000000e+00 2.6389135148370674e-01 4.7022942191065281e-01  0.0000000000000000e+00 2.6392854906547492e-01 4.7059751555705293e-01  0.0000000000000000e+00 2.6396711292664965e-01 4.7096504722964094e-01  0.0000000000000000e+00 2.6400700305716979e-01 4.7133196408577588e-01  0.0000000000000000e+00 2.6404817793631263e-01 4.7169821337013929e-01  0.0000000000000000e+00 2.6409059455952860e-01 4.7206374242489935e-01  0.0000000000000000e+00 2.6413420846566099e-01 4.7242849869467196e-01  0.0000000000000000e+00 2.6417897376553212e-01 4.7279242973528468e-01  0.0000000000000000e+00 2.6422484317147210e-01 4.7315548322244916e-01  0.0000000000000000e+00 2.6427176802731966e-01 4.7351760695690853e-01  0.0000000000000000e+00 2.6431969833967389e-01 4.7387874887258274e-01  0.0000000000000000e+00 2.6436858281029513e-01 4.7423885704659985e-01  0.0000000000000000e+00 2.6441836886841175e-01 4.7459787970221406e-01  0.0000000000000000e+00 2.6446900270490620e-01 4.7495576521956162e-01  0.0000000000000000e+00 2.6452042930687675e-01 4.7531246214297340e-01  0.0000000000000000e+00 2.6457259249301901e-01 4.7566791918845636e-01  0.0000000000000000e+00 2.6462543494930707e-01 4.7602208524799061e-01  0.0000000000000000e+00 2.6467889826643770e-01 4.7637490940069732e-01  0.0000000000000000e+00 2.6473292297719436e-01 4.7672634091839972e-01  0.0000000000000000e+00 2.6478744859468084e-01 4.7707632927232613e-01  0.0000000000000000e+00 2.6484241365174688e-01 4.7742482414301485e-01  0.0000000000000000e+00 2.6489775574015684e-01 4.7777177542426524e-01  0.0000000000000000e+00 2.6495341155110941e-01 4.7811713323166605e-01  0.0000000000000000e+00 2.6500931691627788e-01 4.7846084791041799e-01  0.0000000000000000e+00 2.6506540684940139e-01 4.7880287004283983e-01  0.0000000000000000e+00 2.6512161558799013e-01 4.7914315045309902e-01  0.0000000000000000e+00 2.6517787663636744e-01 4.7948164021676343e-01  0.0000000000000000e+00 2.6523412280838315e-01 4.7981829066517728e-01  0.0000000000000000e+00 2.6529028627188128e-01 4.8015305339738046e-01  0.0000000000000000e+00 2.6534629859170356e-01 4.8048588028043465e-01  0.0000000000000000e+00 2.6540209077521859e-01 4.8081672346218179e-01  0.0000000000000000e+00 2.6545759331661239e-01 4.8114553537410509e-01  0.0000000000000000e+00 2.6551273624268174e-01 4.8147226874078752e-01  0.0000000000000000e+00 2.6556744915825575e-01 4.8179687658498738e-01  0.0000000000000000e+00 2.6562166129248838e-01 4.8211931223585741e-01  0.0000000000000000e+00 2.6567530154488916e-01 4.8243952933375450e-01  0.0000000000000000e+00 2.6572829853185187e-01 4.8275748183627532e-01  0.0000000000000000e+00 2.6578058063463383e-01 4.8307312403146885e-01  0.0000000000000000e+00 2.6583207604535297e-01 4.8338641053782883e-01  0.0000000000000000e+00 2.6588271281388992e-01 4.8369729630832464e-01  0.0000000000000000e+00 2.6593241889705155e-01 4.8400573664725766e-01  0.0000000000000000e+00 2.6598112220453290e-01 4.8431168720666057e-01  0.0000000000000000e+00 2.6602875064772669e-01 4.8461510399946617e-01  0.0000000000000000e+00 2.6607523218665335e-01 4.8491594340041144e-01  0.0000000000000000e+00 2.6612049487818334e-01 4.8521416215458796e-01  0.0000000000000000e+00 2.6616446692397688e-01 4.8550971738407256e-01  0.0000000000000000e+00 2.6620707671851268e-01 4.8580256659519327e-01  0.0000000000000000e+00 2.6624825289668441e-01 4.8609266768306736e-01  0.0000000000000000e+00 2.6628792438181303e-01 4.8637997893933987e-01  0.0000000000000000e+00 2.6632602043260778e-01 4.8666445905288447e-01  0.0000000000000000e+00 2.6636247069147984e-01 4.8694606712090260e-01  0.0000000000000000e+00 2.6639720523210170e-01 4.8722476265608466e-01  0.0000000000000000e+00 2.6643015460594133e-01 4.8750050558682451e-01  0.0000000000000000e+00 2.6646124989003084e-01 4.8777325626869739e-01  0.0000000000000000e+00 2.6649042273326207e-01 4.8804297548587100e-01  0.0000000000000000e+00 2.6651760540318564e-01 4.8830962445863985e-01  0.0000000000000000e+00 2.6654273083220043e-01 4.8857316484811730e-01  0.0000000000000000e+00 2.6656573266367228e-01 4.8883355876330203e-01  0.0000000000000000e+00 2.6658654529758607e-01 4.8909076876730745e-01  0.0000000000000000e+00 2.6660510393527453e-01 4.8934475787613352e-01  0.0000000000000000e+00 2.6662134462513137e-01 4.8959548957478255e-01  0.0000000000000000e+00 2.6663520430627768e-01 4.8984292781240946e-01  0.0000000000000000e+00 2.6664662085284707e-01 4.9008703701016110e-01  0.0000000000000000e+00 2.6665553311781137e-01 4.9032778207344963e-01  0.0000000000000000e+00 2.6666188097549698e-01 4.9056512838699590e-01  0.0000000000000000e+00 2.6666560536436734e-01 4.9079904182653494e-01  0.0000000000000000e+00 2.6666664832883047e-01 4.9102948876094493e-01  0.0000000000000000e+00 2.6666495306063187e-01 4.9125643605580971e-01  0.0000000000000000e+00 2.6666046393961085e-01 4.9147985108203401e-01  0.0000000000000000e+00 2.6665312657385615e-01 4.9169970171630445e-01  0.0000000000000000e+00 2.6664288783908663e-01 4.9191595634999863e-01  0.0000000000000000e+00 2.6662969591747204e-01 4.9212858389110758e-01  0.0000000000000000e+00 2.6661350033583403e-01 4.9233755376778038e-01  0.0000000000000000e+00 2.6659425200290904e-01 4.9254283593484943e-01  0.0000000000000000e+00 2.6657190324609792e-01 4.9274440087661908e-01  0.0000000000000000e+00 2.6654640784702144e-01 4.9294221961381135e-01  0.0000000000000000e+00 2.6651772107703375e-01 4.9313626370377106e-01  0.0000000000000000e+00 2.6648579973116876e-01 4.9332650524740124e-01  0.0000000000000000e+00 2.6645060216172689e-01 4.9351291689197363e-01  0.0000000000000000e+00 2.6641208831067353e-01 4.9369547183604284e-01  0.0000000000000000e+00 2.6637021974178265e-01 4.9387414383123279e-01  0.0000000000000000e+00 2.6632495967072106e-01 4.9404890718935002e-01  0.0000000000000000e+00 2.6627627299535972e-01 4.9421973678391140e-01  0.0000000000000000e+00 2.6622412632544779e-01 4.9438660805169760e-01  0.0000000000000000e+00 2.6616848800913295e-01 4.9454949700145989e-01  0.0000000000000000e+00 2.6610932816127419e-01 4.9470838021306912e-01  0.0000000000000000e+00 2.6604661868898077e-01 4.9486323484270350e-01  0.0000000000000000e+00 2.6598033331678733e-01 4.9501403862580851e-01  0.0000000000000000e+00 2.6591044761050731e-01 4.9516076988072177e-01  0.0000000000000000e+00 2.6583693900151445e-01 4.9530340750930302e-01  0.0000000000000000e+00 2.6575978680649376e-01 4.9544193100457917e-01  0.0000000000000000e+00 2.6567897225059434e-01 4.9557632044927258e-01  0.0000000000000000e+00 2.6559447848574619e-01 4.9570655652159223e-01  0.0000000000000000e+00 2.6550629061030484e-01 4.9583262049647181e-01  0.0000000000000000e+00 2.6541439568669656e-01 4.9595449424846805e-01  0.0000000000000000e+00 2.6531878275797910e-01 4.9607216025448780e-01  0.0000000000000000e+00 2.6521944286234106e-01 4.9618560159743186e-01  0.0000000000000000e+00 2.6511636904903030e-01 4.9629480196666798e-01  0.0000000000000000e+00 2.6500955639018420e-01 4.9639974566199047e-01  0.0000000000000000e+00 2.6489900199420535e-01 4.9650041759449903e-01  0.0000000000000000e+00 2.6478470501628931e-01 4.9659680328931832e-01  0.0000000000000000e+00 2.6454489022019156e-01 4.9677666115389191e-01  0.0000000000000000e+00 2.6441938102584683e-01 4.9686010746378156e-01  0.0000000000000000e+00 2.6429014650964422e-01 4.9693921582106215e-01  0.0000000000000000e+00 2.6415719618145311e-01 4.9701397485167231e-01  0.0000000000000000e+00 2.6402054163868716e-01 4.9708437380679371e-01  0.0000000000000000e+00 2.6388019656849321e-01 4.9715040256464971e-01  0.0000000000000000e+00 2.6373617674928823e-01 4.9721205163186977e-01  0.0000000000000000e+00 2.6358850005157608e-01 4.9726931214461384e-01  0.0000000000000000e+00 2.6343718643648145e-01 4.9732217587009503e-01  0.0000000000000000e+00 2.6328225795371668e-01 4.9737063520770042e-01  0.0000000000000000e+00 2.6312373873843165e-01 4.9741468319002602e-01  0.0000000000000000e+00 2.6296165500657159e-01 4.9745431348392438e-01  0.0000000000000000e+00 2.6279603504895721e-01 4.9748952039145528e-01  0.0000000000000000e+00 2.6262690922451060e-01 4.9752029885065474e-01  0.0000000000000000e+00 2.6245430995209601e-01 4.9754664443626861e-01  0.0000000000000000e+00 2.6227827170125445e-01 4.9756855336038164e-01  0.0000000000000000e+00 2.6209883098175407e-01 4.9758602247296246e-01  0.0000000000000000e+00 2.6191602633191302e-01 4.9759904926232801e-01  0.0000000000000000e+00 2.6172989830548893e-01 4.9760763185552631e-01  0.0000000000000000e+00 2.6154048945726965e-01 4.9761176901859117e-01  0.0000000000