<?xml version="1.0"?>
<VTKFile type="UnstructuredGrid"  version="0.1"  >
<UnstructuredGrid>
<Piece  NumberOfPoints="25605" NumberOfCells="50684">
<Points>
<DataArray  type="Float64"  NumberOfComponents="3"  format="ascii">500 250 0  0 250 0  250 500 0  250 0 0  252.9976310880008 499.9820277697183 0  255.994831180465 499.9281136629446 0  258.9911693467 499.8382654314166 0  261.9862147844171 499.7124959931758 0  264.9795368730259 499.550823430959 0  267.9707052380909 499.3532709896657 0  270.9592898147818 499.1198670729815 0  273.944860911003 498.850645239173 0  276.9269892620302 498.5456441969613 0  279.9052461102784 498.204907798141 0  282.879203246639 497.8284850332306 0  285.8484330760252 497.4164300243493 0  288.812508703066 496.9688020138868 0  291.7710039592635 496.4856653605544 0  294.7234934645729 495.9670895309458 0  297.6695527219374 495.4131490839284 0  300.6087581526373 494.8239236640241 0  303.5406871632312 494.1994979890193 0  306.4649182085955 493.5399618372653 0  309.3810308492501 492.8454100354388 0  312.2886058121011 492.1159424449053 0  315.1872250543244 491.3516639464432 0  318.0764718164482 490.552684426976 0  320.9559306911491 489.7191187614222 0  323.8251876776197 488.8510867975364 0  326.6838302398962 487.9487133391117 0  329.5314473625203 487.0121281293906 0  332.3676296259557 486.0414658270902 0  335.1919692490408 485.0368659922747 0  338.0040601519906 483.9984730650284 0  340.8034980252745 482.926436340691 0  343.5898803648273 481.8209099570125 0  346.3628065522297 480.6820528636277 0  349.1218779058009 479.5100288014175 0  351.866697726272 478.3050062840155 0  354.5968713702315 477.0671585667096 0  357.3120063039883 475.7966636224122 0  360.0117121560444 474.4937041177227 0  362.6956007624657 473.158467392091 0  365.3632862410136 471.7911454221605 0  368.0143850392318 470.39193479756 0  370.6485159774368 468.9610366993228 0  373.2653003309281 467.4986568563726 0  375.8643618621848 466.0050055277077 0  378.4453268904447 464.4802974634425 0  381.0078243277097 462.9247518841339 0  383.5514857466806 461.3385924407896 0  386.0759454147861 459.7220471945478 0  388.5808403686633 458.0753485704519 0  391.0658104727646 456.398733318938 0  393.5304984398443 454.6924425024281 0  395.9745499014433 452.9567214483695 0  398.3976134594079 451.1918197133078 0  400.7993407313268 449.3979910505549 0  403.1793863983767 447.5754933756127 0  405.5374082633365 445.7245887228382 0  407.8730672875487 443.8455432173283 0  410.1860276678057 441.9386270139729 0  412.4759568502628 440.0041142859584 0  414.7425255888164 438.0422831775295 0  416.9854079982472 436.0534157591817 0  419.2042816111551 434.0377979776246 0  421.3988273934515 431.9957196423856 0  423.5687298230711 429.9274743545459 0  425.7136769203488 427.833359477718 0  427.8333602660664 425.7136761224903 0  429.9274751166117 423.5687290330868 0  431.9957203865596 421.3988266032683 0  434.0377986976932 419.2042808279605 0  436.0534164531565 416.9854072250276 0  438.0422838486247 414.7425248228072 0  440.0041149354581 412.4759560907189 0  441.9386276454979 410.1860269110977 0  443.8455438341414 407.8730665301906 0  445.7245893245478 405.5374075061595 0  447.5754939498422 403.1793856577179 0  449.3979916037435 400.7993399998601 0  451.1918202566634 398.3976127227471 0  452.9567219786559 395.9745491641559 0  454.6924430171686 393.53049770576 0  456.3987338202434 391.0658097392857 0  458.0753490553683 388.5808396405746 0  459.7220476673142 386.0759446861523 0  461.3385928978555 383.5514850233965 0  462.924752323721 381.0078236132563 0  464.4802978831972 378.4453261895309 0  466.005005928237 375.8643611748071 0  467.4986572464557 373.2652996426359 0  468.9610370690891 370.64851530636 0  470.3919351512159 368.0143843787793 0  471.7911457549822 365.363285601149 0  473.1584677051019 362.6956001426453 0  474.4937044170927 360.0117115451396 0  475.7966639080153 357.3120057030471 0  477.0671588375024 354.5968707823731 0  478.3050065468899 351.8666971371142 0  479.5100290514928 349.1218773267684 0  480.68205310082 346.3628059844174 0  481.8209101826405 343.5898798059497 0  482.926436550004 340.8034974883511 0  483.9984732613996 338.0040596298491 0  485.0368661774559 335.1919687381426 0  486.0414660017697 332.3676291253755 0  487.0121282892932 329.5314468859938 0  487.9487134870012 326.6838297809975 0  488.8510869337421 323.825187236945 0  489.7191188882317 320.9559302627332 0  490.5526845449373 318.0764713996244 0  491.3516640573307 315.1872246437704 0  492.1159425458163 312.2886054198597 0  492.8454101279934 309.3810304707378 0  493.5399619220304 306.4649178429931 0  494.1994980644915 303.5406868190015 0  494.8239237308971 300.6087578291331 0  495.4131491423161 297.6695524213444 0  495.9670895813101 294.7234931875826 0  496.4856654030534 291.7710037084818 0  496.9688020494549 288.8125084767419 0  497.416430053242 285.8484328766153 0  497.8284850586459 282.8792030550702 0  498.2049078189591 279.9052459374942 0  498.5456442137286 276.9269891072627 0  498.850645253019 273.9448607671062 0  499.1198670835989 270.9592896885852 0  499.3532709967772 267.9707051394148 0  499.5508234355897 264.9795367958812 0  499.7124959959075 261.9862147275054 0  499.8382654331632 258.9911692981657 0  499.928113663985 255.99483113709 0  499.9820277699785 252.9976310663071 0  499.9820277697257 247.0023689126091 0  499.9281136630343 244.0051688232745 0  499.8382654314717 241.0088306548307 0  499.7124959931211 238.0137852144455 0  499.5508234310553 235.0204631285785 0  499.3532709900699 232.0292947675166 0  499.119867073792 229.0407101948513 0  498.8506452406773 226.0551391046306 0  498.5456441987692 223.0730107546571 0  498.2049078002218 220.0947539069917 0  497.8284850356648 217.120796771709 0  497.4164300267099 214.151566940267 0  496.968802017216 211.187491318118 0  496.4856653659872 208.2289960727951 0  495.9670895372035 205.2765065698432 0  495.4131490907147 202.330447313 0  494.8239236713522 199.3912418828135 0  494.1994979969027 196.4593128727251 0  493.5399618460726 193.5350818293917 0  492.8454100458835 190.6189691934644 0  492.1159424557956 187.7113942302294 0  491.3516639574156 184.8127749862999 0  490.5526844387521 181.923528225163 0  489.7191187738694 179.0440693509028 0  488.851086810667 176.1748123648628 0  487.948713352938 173.3161698030064 0  487.0121281439243 170.4685526807917 0  486.0414658415049 167.6323704153526 0  485.0368660060558 164.8080307889799 0  483.9984730779887 161.9959398824702 0  482.9264363544502 159.1965020100202 0  481.8209099702043 156.4101196678486 0  480.6820528745703 153.6371934739656 0  479.5100288124721 150.8781221197951 0  478.3050062927852 148.1333022933829 0  477.0671585723666 145.403128642049 0  475.796663627405 142.687993706517 0  474.4937041236649 139.9882878560814 0  473.1584673984938 137.3043992502131 0  471.7911454319914 134.6367137778867 0  470.3919348096422 131.9856149833316 0  468.9610367113798 129.3514840444451 0  467.49865687022 126.7346996935054 0  466.0050055427385 124.1356381636107 0  464.4802974781252 121.5546731340727 0  462.9247519005733 118.992175699009 0  461.3385924615702 116.4485142862037 0  459.722047215144 113.924054616957 0  458.0753485880027 111.4191596576888 0  456.3987333337139 108.9341895488548 0  454.692442514023 106.4695015766915 0  452.95672145825 104.0254501122942 0  451.1918197247282 101.6023865560754 0  449.3979910627008 99.20065928473332 0  447.5754933882043 96.82061361786421 0  445.7245887341124 94.46259175085058 0  443.8455432269008 92.12693272420489 0  441.9386270210269 89.81397234064673 0  440.0041142971544 87.52404316283014 0  438.0422831897421 85.25747442512349 0  436.0534157701649 83.01459201399018 0  434.0377979907771 80.79571840315057 0  431.9957196541004 78.60117261898753 0  429.9274743620823 76.43127018474144 0  427.8333594859367 74.28632308796901 0  425.7136761283247 72.16663973969838 0  423.5687290359737 70.07252488617331 0  421.3988265987173 68.00427960915448 0  419.2042808240311 65.962201298694 0  416.9854072196475 63.94658354201471 0  414.742524818212 61.95771614734943 0  412.4759560828471 59.99588505781063 0  410.1860269003736 58.06137234555209 0  407.8730665183855 56.15445615624427 0  405.5374074948106 54.27541066643354 0  403.1793856410161 52.424506037209 0  400.7993399855741 50.60200838545225 0  398.3976127114923 48.80817973503514 0  395.9745491514178 47.04327801218227 0  393.5304976958927 45.30755697591243 0  391.0658097308475 43.60126617398947 0  388.5808396359472 41.92465094154986 0  386.0759446832285 40.27795233078868 0  383.5514850239504 38.66140710249451 0  381.007823619977 37.07524768041412 0  378.4453262000283 35.51970212308933 0  375.8643611921311 33.99499408185753 0  373.2652996617874 32.50134276439832 0  370.6485153256615 31.03896294154612 0  368.0143843882092 29.60806485383361 0  365.3632855907917 28.2088542396306 0  362.6956001322776 26.84153228966238 0  360.0117115354126 25.50629557814059 0  357.3120057003284 24.20333609069269 0  354.596870775138 22.93284115916481 0  351.8666971306181 21.69499345021163 0  349.121877320111 20.48997094563194 0  346.3628059771881 19.31794689616012 0  343.5898798100648 18.17908981902079 0  340.8034974914794 17.07356345121562 0  338.0040596332272 16.00152673987083 0  335.1919687416658 14.9631338238211 0  332.3676291322006 13.95853400061199 0  329.5314468917599 12.98787171264172 0  326.6838297822748 12.05128651341042 0  323.8251872378164 11.14891306652726 0  320.9559302656854 10.28088111264219 0  318.076471404611 9.447315456473888 0  315.1872246503818 8.648335944454999 0  312.2886054290304 7.88405745654299 0  309.3810304838133 7.154589875203868 0  306.4649178487239 6.460038079298243 0  303.5406868253978 5.800501936910877 0  300.6087578339258 5.176076270093546 0  297.669552426172 4.586850858621602 0  294.7234931936628 4.0329104197954 0  291.7710037123022 3.514334597594029 0  288.8125084726372 3.031197949900047 0  285.8484328697872 2.58356994576863 0  282.8792030484304 2.171514940473202 0  279.905245932244 1.795092180408318 0  276.9269891008954 1.454
[...]
<PointData  Vectors="f_12"> 
<DataArray  type="Float64"  Name="f_12"  NumberOfComponents="3" format="ascii">0.0000000000000000e+00 3.7299905715785614e-01 9.3330834764800141e-01  0.0000000000000000e+00 6.5003635028603157e-01 6.0743833140034031e-01  0.0000000000000000e+00 1.5291466016816977e-02 2.5702894092940409e-01  0.0000000000000000e+00 8.9627578351039017e-01 1.9417463684851327e-01  0.0000000000000000e+00 1.5293037586822470e-02 2.5592954262091583e-01  0.0000000000000000e+00 1.5294597425596560e-02 2.5494745961571769e-01  0.0000000000000000e+00 1.5296011978880766e-02 2.5413707482402842e-01  0.0000000000000000e+00 1.5297249730587230e-02 2.5349551531074099e-01  0.0000000000000000e+00 1.5298238206328654e-02 2.5300190433830322e-01  0.0000000000000000e+00 1.5298976171109112e-02 2.5264144262187194e-01  0.0000000000000000e+00 1.5299417587870625e-02 2.5242704437594499e-01  0.0000000000000000e+00 1.5299565086189798e-02 2.5234764220217010e-01  0.0000000000000000e+00 1.5299404308084000e-02 2.5240452214414366e-01  0.0000000000000000e+00 1.5298941763648309e-02 2.5260064255144155e-01  0.0000000000000000e+00 1.5298210712808095e-02 2.5292702164233649e-01  0.0000000000000000e+00 1.5297181204134914e-02 2.5341369950838949e-01  0.0000000000000000e+00 1.5295955289433073e-02 2.5402841394380032e-01  0.0000000000000000e+00 1.5294558424879968e-02 2.5476955093748571e-01  0.0000000000000000e+00 1.5293021056097957e-02 2.5566106423050700e-01  0.0000000000000000e+00 1.5291439639114085e-02 2.5669551888403885e-01  0.0000000000000000e+00 1.5289868973300211e-02 2.5787403180025320e-01  0.0000000000000000e+00 1.5288422101142726e-02 2.5918445601431389e-01  0.0000000000000000e+00 1.5287242185061419e-02 2.6063069806266315e-01  0.0000000000000000e+00 1.5286313516766932e-02 2.6226171479339772e-01  0.0000000000000000e+00 1.5285884658240287e-02 2.6404716257112365e-01  0.0000000000000000e+00 1.5286087643157732e-02 2.6595717525821577e-01  0.0000000000000000e+00 1.5286994175294895e-02 2.6802343214206520e-01  0.0000000000000000e+00 1.5288826383776972e-02 2.7026189924671729e-01  0.0000000000000000e+00 1.5291730892399559e-02 2.7265612226830166e-01  0.0000000000000000e+00 1.5295961153494348e-02 2.7520272241415389e-01  0.0000000000000000e+00 1.5301783694647225e-02 2.7790364394415373e-01  0.0000000000000000e+00 1.5309044143404758e-02 2.8075806113688373e-01  0.0000000000000000e+00 1.5318218820627571e-02 2.8375169630718483e-01  0.0000000000000000e+00 1.5329512715244610e-02 2.8688652864258135e-01  0.0000000000000000e+00 1.5343145369356589e-02 2.9018715440490134e-01  0.0000000000000000e+00 1.5359231603883736e-02 2.9361096112306673e-01  0.0000000000000000e+00 1.5377758450560917e-02 2.9714120854532750e-01  0.0000000000000000e+00 1.5399086110003920e-02 3.0078600767558855e-01  0.0000000000000000e+00 1.5423288822786353e-02 3.0454328078641280e-01  0.0000000000000000e+00 1.5450573003490177e-02 3.0842062883778149e-01  0.0000000000000000e+00 1.5480647587100448e-02 3.1234040672816527e-01  0.0000000000000000e+00 1.5514882537092826e-02 3.1644852069167823e-01  0.0000000000000000e+00 1.5552120042587535e-02 3.2058967437512487e-01  0.0000000000000000e+00 1.5592878005909413e-02 3.2483420754351733e-01  0.0000000000000000e+00 1.5637496785229407e-02 3.2917652885882709e-01  0.0000000000000000e+00 1.5686255269552498e-02 3.3362294398799480e-01  0.0000000000000000e+00 1.5739324608475887e-02 3.3819110208805853e-01  0.0000000000000000e+00 1.5797210366065798e-02 3.4288949838014837e-01  0.0000000000000000e+00 1.5860433767562999e-02 3.4773915153919221e-01  0.0000000000000000e+00 1.5929344845826147e-02 3.5277112709173980e-01  0.0000000000000000e+00 1.6005052718207752e-02 3.5799352221499753e-01  0.0000000000000000e+00 1.6088016201972873e-02 3.6345257822087551e-01  0.0000000000000000e+00 1.6179421269632129e-02 3.6916800393533561e-01  0.0000000000000000e+00 1.6280378440384866e-02 3.7518046677516431e-01  0.0000000000000000e+00 1.6391332668352333e-02 3.8148405434096144e-01  0.0000000000000000e+00 1.6514634806635373e-02 3.8813082356926087e-01  0.0000000000000000e+00 1.6650980712805557e-02 3.9516486930023581e-01  0.0000000000000000e+00 1.6801705365301924e-02 4.0254986382791269e-01  0.0000000000000000e+00 1.6967538689957963e-02 4.1027581463408136e-01  0.0000000000000000e+00 1.7150520466346474e-02 4.1838304371249763e-01  0.0000000000000000e+00 1.7351809586767249e-02 4.2686573699321567e-01  0.0000000000000000e+00 1.7571920917092223e-02 4.3566051228397912e-01  0.0000000000000000e+00 1.7811163111951449e-02 4.4472904570270649e-01  0.0000000000000000e+00 1.8069939566658533e-02 4.5402634151553978e-01  0.0000000000000000e+00 1.8349227291403706e-02 4.6353954925410734e-01  0.0000000000000000e+00 1.8646489527188420e-02 4.7316204024127284e-01  0.0000000000000000e+00 1.8967614872594796e-02 4.8297100725408521e-01  0.0000000000000000e+00 1.9307759376660544e-02 4.9284780528747663e-01  0.0000000000000000e+00 1.9669727841694382e-02 5.0281281417350332e-01  0.0000000000000000e+00 2.0057298310619198e-02 5.1292510569451222e-01  0.0000000000000000e+00 2.0472900837128358e-02 5.2322248613985878e-01  0.0000000000000000e+00 2.0917886557301521e-02 5.3367758379029273e-01  0.0000000000000000e+00 2.1397636616509175e-02 5.4435809437444027e-01  0.0000000000000000e+00 2.1919942776950599e-02 5.5538116741322374e-01  0.0000000000000000e+00 2.2491726466941891e-02 5.6680563512593041e-01  0.0000000000000000e+00 2.3119878474600737e-02 5.7864614575357487e-01  0.0000000000000000e+00 2.3811879078353502e-02 5.9095673878136279e-01  0.0000000000000000e+00 2.4578027670861660e-02 6.0375889050767828e-01  0.0000000000000000e+00 2.5425082945368455e-02 6.1704413789286572e-01  0.0000000000000000e+00 2.6360180688859310e-02 6.3075939725916874e-01  0.0000000000000000e+00 2.7390016008650382e-02 6.4482905845573824e-01  0.0000000000000000e+00 2.8521529263148587e-02 6.5921103497057576e-01  0.0000000000000000e+00 2.9756387424851125e-02 6.7377192086635629e-01  0.0000000000000000e+00 3.1096055659838272e-02 6.8838869200161568e-01  0.0000000000000000e+00 3.2544060568999653e-02 7.0298434675734567e-01  0.0000000000000000e+00 3.4101327250048691e-02 7.1749414322356808e-01  0.0000000000000000e+00 3.5770673429803702e-02 7.3183026908811477e-01  0.0000000000000000e+00 3.7566174554217194e-02 7.4604545693786861e-01  0.0000000000000000e+00 3.9496592393630015e-02 7.6013604706879012e-01  0.0000000000000000e+00 4.1577485283347995e-02 7.7411110694468632e-01  0.0000000000000000e+00 4.3831627656006185e-02 7.8803570128736600e-01  0.0000000000000000e+00 4.6282493020907783e-02 8.0194005119548628e-01  0.0000000000000000e+00 4.8959236287653682e-02 8.1585318456241762e-01  0.0000000000000000e+00 5.1894144405885946e-02 8.2980470622135860e-01  0.0000000000000000e+00 5.5095761861317115e-02 8.4368072714239550e-01  0.0000000000000000e+00 5.8590822691978003e-02 8.5745969098604669e-01  0.0000000000000000e+00 6.2377417218176585e-02 8.7100842501652476e-01  0.0000000000000000e+00 6.6456843258666326e-02 8.8421115857638544e-01  0.0000000000000000e+00 7.0818130864316764e-02 8.9696901695987274e-01  0.0000000000000000e+00 7.5440508961111832e-02 9.0915550232931575e-01  0.0000000000000000e+00 8.0295815963914108e-02 9.2068417539890623e-01  0.0000000000000000e+00 8.5390902319511852e-02 9.3155673955305007e-01  0.0000000000000000e+00 9.0692171797601071e-02 9.4172107629790625e-01  0.0000000000000000e+00 9.6219354795175363e-02 9.5121452286266261e-01  0.0000000000000000e+00 1.0199574354017985e-01 9.6007939785893714e-01  0.0000000000000000e+00 1.0804406207268788e-01 9.6833462220795097e-01  0.0000000000000000e+00 1.1439333659626133e-01 9.7600444426193966e-01  0.0000000000000000e+00 1.2107387006896138e-01 9.8309160866507750e-01  0.0000000000000000e+00 1.2811119030439874e-01 9.8958494653527118e-01  0.0000000000000000e+00 1.3550660675031259e-01 9.9544719674826410e-01  0.0000000000000000e+00 1.4323265321451165e-01 1.0006255117612766e+00  0.0000000000000000e+00 1.5127763311492304e-01 1.0050925804620729e+00  0.0000000000000000e+00 1.5957631278469667e-01 1.0088098341258926e+00  0.0000000000000000e+00 1.6806597864196329e-01 1.0117611570277860e+00  0.0000000000000000e+00 1.7670386588718529e-01 1.0139598455970324e+00  0.0000000000000000e+00 1.8545131805921122e-01 1.0154312438275073e+00  0.0000000000000000e+00 1.9429484753129195e-01 1.0162061055329861e+00  0.0000000000000000e+00 2.0323526457920718e-01 1.0163215021349836e+00  0.0000000000000000e+00 2.1229186187245086e-01 1.0158042941857648e+00  0.0000000000000000e+00 2.2154307642262047e-01 1.0146567795693087e+00  0.0000000000000000e+00 2.3096974024313913e-01 1.0129067363630653e+00  0.0000000000000000e+00 2.4061205601581762e-01 1.0105324608383861e+00  0.0000000000000000e+00 2.5048029755477996e-01 1.0075385212813648e+00  0.0000000000000000e+00 2.6057288282788577e-01 1.0039169055841248e+00  0.0000000000000000e+00 2.7081820002919543e-01 9.9970524899132507e-01  0.0000000000000000e+00 2.8116704607808973e-01 9.9492577222022460e-01  0.0000000000000000e+00 2.9155055119973733e-01 9.8963220177615907e-01  0.0000000000000000e+00 3.0190162147841526e-01 9.8388336246905272e-01  0.0000000000000000e+00 3.1218877074042861e-01 9.7772685187280217e-01  0.0000000000000000e+00 3.2238446318984948e-01 9.7120934705789386e-01  0.0000000000000000e+00 3.3250854091578286e-01 9.6434565257761273e-01  0.0000000000000000e+00 3.4258896570911601e-01 9.5714065943621995e-01  0.0000000000000000e+00 3.5267217710846444e-01 9.4957838834145447e-01  0.0000000000000000e+00 3.6280023516126891e-01 9.4163865658336521e-01  0.0000000000000000e+00 3.8327292190819012e-01 9.2458864512148908e-01  0.0000000000000000e+00 3.9359748135448275e-01 9.1550584555014214e-01  0.0000000000000000e+00 4.0393622535569812e-01 9.0609827099764895e-01  0.0000000000000000e+00 4.1421914999468157e-01 8.9644202061105438e-01  0.0000000000000000e+00 4.2439236179506706e-01 8.8660282564746207e-01  0.0000000000000000e+00 4.3440812844302307e-01 8.7664569945368531e-01  0.0000000000000000e+00 4.4423531336094413e-01 8.6662248324405577e-01  0.0000000000000000e+00 4.5387335358075170e-01 8.5655413663901536e-01  0.0000000000000000e+00 4.6336087141251620e-01 8.4641774370665224e-01  0.0000000000000000e+00 4.7271050557218286e-01 8.3621735878526715e-01  0.0000000000000000e+00 4.8200438922822691e-01 8.2586955996540845e-01  0.0000000000000000e+00 4.9123934975116396e-01 8.1539271927836909e-01  0.0000000000000000e+00 5.0046850485128702e-01 8.0472832302758746e-01  0.0000000000000000e+00 5.0967707094272530e-01 7.9389849884846497e-01  0.0000000000000000e+00 5.1884214025405795e-01 7.8293607543257537e-01  0.0000000000000000e+00 5.2791033051658387e-01 7.7191047922124856e-01  0.0000000000000000e+00 5.3685573461187552e-01 7.6086473995478476e-01  0.0000000000000000e+00 5.4561812476486116e-01 7.4988291308564015e-01  0.0000000000000000e+00 5.5417572248772695e-01 7.3900500120850843e-01  0.0000000000000000e+00 5.6250350978115593e-01 7.2827684261648529e-01  0.0000000000000000e+00 5.7063097724901368e-01 7.1767290129673322e-01  0.0000000000000000e+00 5.7857865790362795e-01 7.0717702351510991e-01  0.0000000000000000e+00 5.8638306110393634e-01 6.9675030197402965e-01  0.0000000000000000e+00 5.9408838483880289e-01 6.8634063424996328e-01  0.0000000000000000e+00 6.0172761601159175e-01 6.7590856996794557e-01  0.0000000000000000e+00 6.0931805903415881e-01 6.6543408275046656e-01  0.0000000000000000e+00 6.1684679589105562e-01 6.5493817110241070e-01  0.0000000000000000e+00 6.2430459560033280e-01 6.4443796294215494e-01  0.0000000000000000e+00 6.3164544175717530e-01 6.3400291159264066e-01  0.0000000000000000e+00 6.3884185792744386e-01 6.2367751019663487e-01  0.0000000000000000e+00 6.4585439327421890e-01 6.1352587957089333e-01  0.0000000000000000e+00 6.5265340389703508e-01 6.0359861043365448e-01  0.0000000000000000e+00 6.5924235847770341e-01 5.9389908866573493e-01  0.0000000000000000e+00 6.6563677682486799e-01 5.8441203605159175e-01  0.0000000000000000e+00 6.7186157199638852e-01 5.7510727491377167e-01  0.0000000000000000e+00 6.7795437987309837e-01 5.6593378868165811e-01  0.0000000000000000e+00 6.8395143047705653e-01 5.5684153643708822e-01  0.0000000000000000e+00 6.8987634009229537e-01 5.4779706773756887e-01  0.0000000000000000e+00 6.9574118832206311e-01 5.3878499656711321e-01  0.0000000000000000e+00 7.0155832439539190e-01 5.2978819157758839e-01  0.0000000000000000e+00 7.0729526957472555e-01 5.2085865142445531e-01  0.0000000000000000e+00 7.1293882573667067e-01 5.1201977184049052e-01  0.0000000000000000e+00 7.1845536683146738e-01 5.0332714813220802e-01  0.0000000000000000e+00 7.2382242389764306e-01 4.9482052642711866e-01  0.0000000000000000e+00 7.2901940537312160e-01 4.8653690104936709e-01  0.0000000000000000e+00 7.3403286983794902e-01 4.7850198239248848e-01  0.0000000000000000e+00 7.3886844315735756e-01 4.7071169423490705e-01  0.0000000000000000e+00 7.4355745073259516e-01 4.6311983358263770e-01  0.0000000000000000e+00 7.4810747155298218e-01 4.5571712487122523e-01  0.0000000000000000e+00 7.5255676846456276e-01 4.4844458969561624e-01  0.0000000000000000e+00 7.5692624783198392e-01 4.4126999321106114e-01  0.0000000000000000e+00 7.6123861467383303e-01 4.3415790343394756e-01  0.0000000000000000e+00 7.6551687088674181e-01 4.2707116500306758e-01  0.0000000000000000e+00 7.6974059248897908e-01 4.2004480140104528e-01  0.0000000000000000e+00 7.7390294357182920e-01 4.1309119515974024e-01  0.0000000000000000e+00 7.7800247465325445e-01 4.0621423469594314e-01  0.0000000000000000e+00 7.8199560559765258e-01 3.9948820578086364e-01  0.0000000000000000e+00 7.8587464015623232e-01 3.9292842858778748e-01  0.0000000000000000e+00 7.8962498256109237e-01 3.8656168988674344e-01  0.0000000000000000e+00 7.9323990290976532e-01 3.8040181747378199e-01  0.0000000000000000e+00 7.9670904757621708e-01 3.7446896865740309e-01  0.0000000000000000e+00 8.0003760868391738e-01 3.6875671303979435e-01  0.0000000000000000e+00 8.0325210592964635e-01 3.6322170711621982e-01  0.0000000000000000e+00 8.0637240279997635e-01 3.5783149636417011e-01  0.0000000000000000e+00 8.0941499592926358e-01 3.5255903273653799e-01  0.0000000000000000e+00 8.1239825921706488e-01 3.4737360451525418e-01  0.0000000000000000e+00 8.1533407938625357e-01 3.4225535672068530e-01  0.0000000000000000e+00 8.1823606485054745e-01 3.3718118231107047e-01  0.0000000000000000e+00 8.2111251822475673e-01 3.3213696660885988e-01  0.0000000000000000e+00 8.2394244100293701e-01 3.2715995946677212e-01  0.0000000000000000e+00 8.2671869684742949e-01 3.2226337954845236e-01  0.0000000000000000e+00 8.2945031507935807e-01 3.1743179336764971e-01  0.0000000000000000e+00 8.3212330552853198e-01 3.1269059442912217e-01  0.0000000000000000e+00 8.3470230332410644e-01 3.0810332900919146e-01  0.0000000000000000e+00 8.3717996275219919e-01 3.0368422528551409e-01  0.0000000000000000e+00 8.3956383771510834e-01 2.9942105148997872e-01  0.0000000000000000e+00 8.4184469965253739e-01 2.9533149585574026e-01  0.0000000000000000e+00 8.4402596724815004e-01 2.9141064789760524e-01  0.0000000000000000e+00 8.4611208385397940e-01 2.8765167022080096e-01  0.0000000000000000e+00 8.4811206106714609e-01 2.8403941297054042e-01  0.0000000000000000e+00 8.5004158937007313e-01 2.8054648696291484e-01  0.0000000000000000e+00 8.5191226507788509e-01 2.7715268231995682e-01  0.0000000000000000e+00 8.5373378451036219e-01 2.7384102295581852e-01  0.0000000000000000e+00 8.5551609708069132e-01 2.7059392237291169e-01  0.0000000000000000e+00 8.5726676908833299e-01 2.6739796703830299e-01  0.0000000000000000e+00 8.5899119485832998e-01 2.6424360278976106e-01  0.0000000000000000e+00 8.6069189550035030e-01 2.6112642717945683e-01  0.0000000000000000e+00 8.6236919512685639e-01 2.5804602109067398e-01  0.0000000000000000e+00 8.6401998755475096e-01 2.5500825560773716e-01  0.0000000000000000e+00 8.6563968260584900e-01 2.5202176074966037e-01  0.0000000000000000e+00 8.6722312712527472e-01 2.4909625893424084e-01  0.0000000000000000e+00 8.6876349330863689e-01 2.4624463679930134e-01  0.0000000000000000e+00 8.7025568480875470e-01 2.4347666226171741e-01  0.0000000000000000e+00 8.7169357051345342e-01 2.4080409788396315e-01  0.0000000000000000e+00 8.7307306972644294e-01 2.3823498787699326e-01  0.0000000000000000e+00 8.7439181962226842e-01 2.3577422639818504e-01  0.0000000000000000e+00 8.7564747726131742e-01 2.3342671884785138e-01  0.0000000000000000e+00 8.7683788844655230e-01 2.3119707570142486e-01  0.0000000000000000e+00 8.7797180741451575e-01 2.2906942335943278e-01  0.0000000000000000e+00 8.7905395987612378e-01 2.2703540544716247e-01  0.0000000000000000e+00 8.8007788288376887e-01 2.2510758061708058e-01  0.0000000000000000e+00 8.8105013081177741e-01 2.2327407894790724e-01  0.0000000000000000e+00 8.8196880958887436e-01 2.2153887911343961e-01  0.0000000000000000e+00 8.8285255085789627e-01 2.1986728154953991e-01  0.0000000000000000e+00 8.8371927139849227e-01 2.1822581973819999e-01  0.0000000000000000e+00 8.8450160781637788e-01 2.1674163498463966e-01  0.0000000000000000e+00 8.8527167851045618e-01 2.1527912902736981e-01  0.0000000000000000e+00 8.8600923158813871e-01 2.1387665717094770e-01  0.0000000000000000e+00 8.8673253318588729e-01 2.1249980529029663e-01  0.0000000000000000e+00 8.8743474380228160e-01 2.1116165053300956e-01  0.0000000000000000e+00 8.8809368611224937e-01 2.0990435878079863e-01  0.0000000000000000e+00 8.8873493012225080e-01 2.0867960250719769e-01  0.0000000000000000e+00 8.8935841857402531e-01 2.0748759607184267e-01  0.0000000000000000e+00 8.8995425809542883e-01 2.0634726703108147e-01  0.0000000000000000e+00 8.9052664860688246e-01 2.0525073437314453e-01  0.0000000000000000e+00 8.9107870012391766e-01 2.0419218366401759e-01  0.0000000000000000e+00 8.9160263896023217e-01 2.0318657470312748e-01  0.0000000000000000e+00 8.9210669698130440e-01 2.0221829749819062e-01  0.0000000000000000e+00 8.9259390030805663e-01 2.0128170451894789e-01  0.0000000000000000e+00 8.9303330479156673e-01 2.0043599834851195e-01  0.0000000000000000e+00 8.9347933790373923e-01 1.9957724981290628e-01  0.0000000000000000e+00 8.9385764543811430e-01 1.9884783024595895e-01  0.0000000000000000e+00 8.9423896046949158e-01 1.9811247313805416e-01  0.0000000000000000e+00 8.9458981236181101e-01 1.9743533891823556e-01  0.0000000000000000e+00 8.9491764864243251e-01 1.9680225847296431e-01  0.0000000000000000e+00 8.9520945479307912e-01 1.9623830088938810e-01  0.0000000000000000e+00 8.9549731813276978e-01 1.9568194968263422e-01  0.0000000000000000e+00 8.9570246777676610e-01 1.9528453296340856e-01  0.0000000000000000e+00 8.9592275726224624e-01 1.9485825533376525e-01  0.0000000000000000e+00 8.9610819542101272e-01 1.9449915337128909e-01  0.0000000000000000e+00 8.9640257443793159e-01 1.9392884258838000e-01  0.0000000000000000e+00 8.9651503256456755e-01 1.9371095753605455e-01  0.0000000000000000e+00 8.9659809658952527e-01 1.9354996445907535e-01  0.0000000000000000e+00 8.9664534843949961e-01 1.9345823928650085e-01  0.0000000000000000e+00 8.9665919867641042e-01 1.9343115299436586e-01  0.0000000000000000e+00 8.9667957982411151e-01 1.9339188076805550e-01  0.0000000000000000e+00 8.9663984172808875e-01 1.9346867700994894e-01  0.0000000000000000e+00 8.9660884542860764e-01 1.9352903816599237e-01  0.0000000000000000e+00 8.9652393822208720e-01 1.9369345234134397e-01  0.0000000000000000e+00 8.9642349905152741e-01 1.9388808630259058e-01  0.0000000000000000e+00 8.9629981296546801e-01 1.9412774087900117e-01  0.0000000000000000e+00 8.9614879571569928e-01 1.9442025182140132e-01  0.0000000000000000e+00 8.9597140579967460e-01 1.9476370584017466e-01  0.0000000000000000e+00 8.9577627419845063e-01 1.9514148018264507e-01  0.0000000000000000e+00 8.9556001910620597e-01 1.9556001515892019e-01  0.0000000000000000e+00 8.9530990203031291e-01 1.9604368107251707e-01  0.0000000000000000e+00 8.9504378198224865e-01 1.9655814782036099e-01  0.0000000000000000e+00 8.9474692532355815e-01 1.9713160357558276e-01  0.0000000000000000e+00 8.9441437501028465e-01 1.9777345270156976e-01  0.0000000000000000e+00 8.9408334714806814e-01 1.9841228389661855e-01  0.0000000000