<?xml version="1.0"?>
<VTKFile type="UnstructuredGrid"  version="0.1"  >
<UnstructuredGrid>
<Piece  NumberOfPoints="25605" NumberOfCells="50684">
<Points>
<DataArray  type="Float64"  NumberOfComponents="3"  format="ascii">500 250 0  0 250 0  250 500 0  250 0 0  252.9976310880008 499.9820277697183 0  255.994831180465 499.9281136629446 0  258.9911693467 499.8382654314166 0  261.9862147844171 499.7124959931758 0  264.9795368730259 499.550823430959 0  267.9707052380909 499.3532709896657 0  270.9592898147818 499.1198670729815 0  273.944860911003 498.850645239173 0  276.9269892620302 498.5456441969613 0  279.9052461102784 498.204907798141 0  282.879203246639 497.8284850332306 0  285.8484330760252 497.4164300243493 0  288.812508703066 496.9688020138868 0  291.7710039592635 496.4856653605544 0  294.7234934645729 495.9670895309458 0  297.6695527219374 495.4131490839284 0  300.6087581526373 494.8239236640241 0  303.5406871632312 494.1994979890193 0  306.4649182085955 493.5399618372653 0  309.3810308492501 492.8454100354388 0  312.2886058121011 492.1159424449053 0  315.1872250543244 491.3516639464432 0  318.0764718164482 490.552684426976 0  320.9559306911491 489.7191187614222 0  323.8251876776197 488.8510867975364 0  326.6838302398962 487.9487133391117 0  329.5314473625203 487.0121281293906 0  332.3676296259557 486.0414658270902 0  335.1919692490408 485.0368659922747 0  338.0040601519906 483.9984730650284 0  340.8034980252745 482.926436340691 0  343.5898803648273 481.8209099570125 0  346.3628065522297 480.6820528636277 0  349.1218779058009 479.5100288014175 0  351.866697726272 478.3050062840155 0  354.5968713702315 477.0671585667096 0  357.3120063039883 475.7966636224122 0  360.0117121560444 474.4937041177227 0  362.6956007624657 473.158467392091 0  365.3632862410136 471.7911454221605 0  368.0143850392318 470.39193479756 0  370.6485159774368 468.9610366993228 0  373.2653003309281 467.4986568563726 0  375.8643618621848 466.0050055277077 0  378.4453268904447 464.4802974634425 0  381.0078243277097 462.9247518841339 0  383.5514857466806 461.3385924407896 0  386.0759454147861 459.7220471945478 0  388.5808403686633 458.0753485704519 0  391.0658104727646 456.398733318938 0  393.5304984398443 454.6924425024281 0  395.9745499014433 452.9567214483695 0  398.3976134594079 451.1918197133078 0  400.7993407313268 449.3979910505549 0  403.1793863983767 447.5754933756127 0  405.5374082633365 445.7245887228382 0  407.8730672875487 443.8455432173283 0  410.1860276678057 441.9386270139729 0  412.4759568502628 440.0041142859584 0  414.7425255888164 438.0422831775295 0  416.9854079982472 436.0534157591817 0  419.2042816111551 434.0377979776246 0  421.3988273934515 431.9957196423856 0  423.5687298230711 429.9274743545459 0  425.7136769203488 427.833359477718 0  427.8333602660664 425.7136761224903 0  429.9274751166117 423.5687290330868 0  431.9957203865596 421.3988266032683 0  434.0377986976932 419.2042808279605 0  436.0534164531565 416.9854072250276 0  438.0422838486247 414.7425248228072 0  440.0041149354581 412.4759560907189 0  441.9386276454979 410.1860269110977 0  443.8455438341414 407.8730665301906 0  445.7245893245478 405.5374075061595 0  447.5754939498422 403.1793856577179 0  449.3979916037435 400.7993399998601 0  451.1918202566634 398.3976127227471 0  452.9567219786559 395.9745491641559 0  454.6924430171686 393.53049770576 0  456.3987338202434 391.0658097392857 0  458.0753490553683 388.5808396405746 0  459.7220476673142 386.0759446861523 0  461.3385928978555 383.5514850233965 0  462.924752323721 381.0078236132563 0  464.4802978831972 378.4453261895309 0  466.005005928237 375.8643611748071 0  467.4986572464557 373.2652996426359 0  468.9610370690891 370.64851530636 0  470.3919351512159 368.0143843787793 0  471.7911457549822 365.363285601149 0  473.1584677051019 362.6956001426453 0  474.4937044170927 360.0117115451396 0  475.7966639080153 357.3120057030471 0  477.0671588375024 354.5968707823731 0  478.3050065468899 351.8666971371142 0  479.5100290514928 349.1218773267684 0  480.68205310082 346.3628059844174 0  481.8209101826405 343.5898798059497 0  482.926436550004 340.8034974883511 0  483.9984732613996 338.0040596298491 0  485.0368661774559 335.1919687381426 0  486.0414660017697 332.3676291253755 0  487.0121282892932 329.5314468859938 0  487.9487134870012 326.6838297809975 0  488.8510869337421 323.825187236945 0  489.7191188882317 320.9559302627332 0  490.5526845449373 318.0764713996244 0  491.3516640573307 315.1872246437704 0  492.1159425458163 312.2886054198597 0  492.8454101279934 309.3810304707378 0  493.5399619220304 306.4649178429931 0  494.1994980644915 303.5406868190015 0  494.8239237308971 300.6087578291331 0  495.4131491423161 297.6695524213444 0  495.9670895813101 294.7234931875826 0  496.4856654030534 291.7710037084818 0  496.9688020494549 288.8125084767419 0  497.416430053242 285.8484328766153 0  497.8284850586459 282.8792030550702 0  498.2049078189591 279.9052459374942 0  498.5456442137286 276.9269891072627 0  498.850645253019 273.9448607671062 0  499.1198670835989 270.9592896885852 0  499.3532709967772 267.9707051394148 0  499.5508234355897 264.9795367958812 0  499.7124959959075 261.9862147275054 0  499.8382654331632 258.9911692981657 0  499.928113663985 255.99483113709 0  499.9820277699785 252.9976310663071 0  499.9820277697257 247.0023689126091 0  499.9281136630343 244.0051688232745 0  499.8382654314717 241.0088306548307 0  499.7124959931211 238.0137852144455 0  499.5508234310553 235.0204631285785 0  499.3532709900699 232.0292947675166 0  499.119867073792 229.0407101948513 0  498.8506452406773 226.0551391046306 0  498.5456441987692 223.0730107546571 0  498.2049078002218 220.0947539069917 0  497.8284850356648 217.120796771709 0  497.4164300267099 214.151566940267 0  496.968802017216 211.187491318118 0  496.4856653659872 208.2289960727951 0  495.9670895372035 205.2765065698432 0  495.4131490907147 202.330447313 0  494.8239236713522 199.3912418828135 0  494.1994979969027 196.4593128727251 0  493.5399618460726 193.5350818293917 0  492.8454100458835 190.6189691934644 0  492.1159424557956 187.7113942302294 0  491.3516639574156 184.8127749862999 0  490.5526844387521 181.923528225163 0  489.7191187738694 179.0440693509028 0  488.851086810667 176.1748123648628 0  487.948713352938 173.3161698030064 0  487.0121281439243 170.4685526807917 0  486.0414658415049 167.6323704153526 0  485.0368660060558 164.8080307889799 0  483.9984730779887 161.9959398824702 0  482.9264363544502 159.1965020100202 0  481.8209099702043 156.4101196678486 0  480.6820528745703 153.6371934739656 0  479.5100288124721 150.8781221197951 0  478.3050062927852 148.1333022933829 0  477.0671585723666 145.403128642049 0  475.796663627405 142.687993706517 0  474.4937041236649 139.9882878560814 0  473.1584673984938 137.3043992502131 0  471.7911454319914 134.6367137778867 0  470.3919348096422 131.9856149833316 0  468.9610367113798 129.3514840444451 0  467.49865687022 126.7346996935054 0  466.0050055427385 124.1356381636107 0  464.4802974781252 121.5546731340727 0  462.9247519005733 118.992175699009 0  461.3385924615702 116.4485142862037 0  459.722047215144 113.924054616957 0  458.0753485880027 111.4191596576888 0  456.3987333337139 108.9341895488548 0  454.692442514023 106.4695015766915 0  452.95672145825 104.0254501122942 0  451.1918197247282 101.6023865560754 0  449.3979910627008 99.20065928473332 0  447.5754933882043 96.82061361786421 0  445.7245887341124 94.46259175085058 0  443.8455432269008 92.12693272420489 0  441.9386270210269 89.81397234064673 0  440.0041142971544 87.52404316283014 0  438.0422831897421 85.25747442512349 0  436.0534157701649 83.01459201399018 0  434.0377979907771 80.79571840315057 0  431.9957196541004 78.60117261898753 0  429.9274743620823 76.43127018474144 0  427.8333594859367 74.28632308796901 0  425.7136761283247 72.16663973969838 0  423.5687290359737 70.07252488617331 0  421.3988265987173 68.00427960915448 0  419.2042808240311 65.962201298694 0  416.9854072196475 63.94658354201471 0  414.742524818212 61.95771614734943 0  412.4759560828471 59.99588505781063 0  410.1860269003736 58.06137234555209 0  407.8730665183855 56.15445615624427 0  405.5374074948106 54.27541066643354 0  403.1793856410161 52.424506037209 0  400.7993399855741 50.60200838545225 0  398.3976127114923 48.80817973503514 0  395.9745491514178 47.04327801218227 0  393.5304976958927 45.30755697591243 0  391.0658097308475 43.60126617398947 0  388.5808396359472 41.92465094154986 0  386.0759446832285 40.27795233078868 0  383.5514850239504 38.66140710249451 0  381.007823619977 37.07524768041412 0  378.4453262000283 35.51970212308933 0  375.8643611921311 33.99499408185753 0  373.2652996617874 32.50134276439832 0  370.6485153256615 31.03896294154612 0  368.0143843882092 29.60806485383361 0  365.3632855907917 28.2088542396306 0  362.6956001322776 26.84153228966238 0  360.0117115354126 25.50629557814059 0  357.3120057003284 24.20333609069269 0  354.596870775138 22.93284115916481 0  351.8666971306181 21.69499345021163 0  349.121877320111 20.48997094563194 0  346.3628059771881 19.31794689616012 0  343.5898798100648 18.17908981902079 0  340.8034974914794 17.07356345121562 0  338.0040596332272 16.00152673987083 0  335.1919687416658 14.9631338238211 0  332.3676291322006 13.95853400061199 0  329.5314468917599 12.98787171264172 0  326.6838297822748 12.05128651341042 0  323.8251872378164 11.14891306652726 0  320.9559302656854 10.28088111264219 0  318.076471404611 9.447315456473888 0  315.1872246503818 8.648335944454999 0  312.2886054290304 7.88405745654299 0  309.3810304838133 7.154589875203868 0  306.4649178487239 6.460038079298243 0  303.5406868253978 5.800501936910877 0  300.6087578339258 5.176076270093546 0  297.669552426172 4.586850858621602 0  294.7234931936628 4.0329104197954 0  291.7710037123022 3.514334597594029 0  288.8125084726372 3.031197949900047 0  285.8484328697872 2.58356994576863 0  282.8792030484304 2.171514940473202 0  279.905245932244 1.795092180408318 0  276.9269891008954 1.454
[...]
<PointData  Vectors="f_12"> 
<DataArray  type="Float64"  Name="f_12"  NumberOfComponents="3" format="ascii">0.0000000000000000e+00 3.4163080087221520e-01 9.5784647544824875e-01  0.0000000000000000e+00 6.2853808172831105e-01 6.3844093527206713e-01  0.0000000000000000e+00 1.5282678164306722e-02 2.6903622533044635e-01  0.0000000000000000e+00 8.9322996097988927e-01 2.0006309239431977e-01  0.0000000000000000e+00 1.5281817019889427e-02 2.6791874805489196e-01  0.0000000000000000e+00 1.5281213813649667e-02 2.6692834630129286e-01  0.0000000000000000e+00 1.5280830529486717e-02 2.6610380347572782e-01  0.0000000000000000e+00 1.5280625203981702e-02 2.6544352698940082e-01  0.0000000000000000e+00 1.5280508641366614e-02 2.6493210911732529e-01  0.0000000000000000e+00 1.5280444827014971e-02 2.6455887671914302e-01  0.0000000000000000e+00 1.5280410162598734e-02 2.6433185008911853e-01  0.0000000000000000e+00 1.5280385695822629e-02 2.6424353735344330e-01  0.0000000000000000e+00 1.5280362438060836e-02 2.6429431149703148e-01  0.0000000000000000e+00 1.5280348255404821e-02 2.6448622740883260e-01  0.0000000000000000e+00 1.5280355947743164e-02 2.6481349896432083e-01  0.0000000000000000e+00 1.5280415410337984e-02 2.6529696257173452e-01  0.0000000000000000e+00 1.5280560477261052e-02 2.6591397038815767e-01  0.0000000000000000e+00 1.5280821640122720e-02 2.6666431563483806e-01  0.0000000000000000e+00 1.5281270790069718e-02 2.6756457641910308e-01  0.0000000000000000e+00 1.5281976165441375e-02 2.6860928011320478e-01  0.0000000000000000e+00 1.5283002575727754e-02 2.6980041033958013e-01  0.0000000000000000e+00 1.5284442826472542e-02 2.7112946696708595e-01  0.0000000000000000e+00 1.5286434606158954e-02 2.7259921224718442e-01  0.0000000000000000e+00 1.5289037200539882e-02 2.7424239210528578e-01  0.0000000000000000e+00 1.5292448328214312e-02 2.7603794687618011e-01  0.0000000000000000e+00 1.5296739730705161e-02 2.7796406139017998e-01  0.0000000000000000e+00 1.5302029160789488e-02 2.8004100084701355e-01  0.0000000000000000e+00 1.5308541434692366e-02 2.8227751659767175e-01  0.0000000000000000e+00 1.5316377394105409e-02 2.8466064628993193e-01  0.0000000000000000e+00 1.5325739088686624e-02 2.8718496758735007e-01  0.0000000000000000e+00 1.5336868460801126e-02 2.8984879510272266e-01  0.0000000000000000e+00 1.5349596200347261e-02 2.9264633440362164e-01  0.0000000000000000e+00 1.5364322187355058e-02 2.9556629623366287e-01  0.0000000000000000e+00 1.5381173763936214e-02 2.9860554140084700e-01  0.0000000000000000e+00 1.5400296378195651e-02 3.0177591070568882e-01  0.0000000000000000e+00 1.5421740501114610e-02 3.0504393605289848e-01  0.0000000000000000e+00 1.5445450231842918e-02 3.0839692463435070e-01  0.0000000000000000e+00 1.5471680647750022e-02 3.1183695663290317e-01  0.0000000000000000e+00 1.5500424694855264e-02 3.1535930533073442e-01  0.0000000000000000e+00 1.5531823990890389e-02 3.1896695493591876e-01  0.0000000000000000e+00 1.5565627158480427e-02 3.2260909554575284e-01  0.0000000000000000e+00 1.5602809805416524e-02 3.2637681749560155e-01  0.0000000000000000e+00 1.5642540814541760e-02 3.3017503777457263e-01  0.0000000000000000e+00 1.5685160222683969e-02 3.3404859754308558e-01  0.0000000000000000e+00 1.5730978916084607e-02 3.3799738642634009e-01  0.0000000000000000e+00 1.5780243104791380e-02 3.4202966601908191e-01  0.0000000000000000e+00 1.5833118288190010e-02 3.4616155517668290e-01  0.0000000000000000e+00 1.5890080111393156e-02 3.5040523229287529e-01  0.0000000000000000e+00 1.5951616992966537e-02 3.5478166399487221e-01  0.0000000000000000e+00 1.6018074003038764e-02 3.5931836660946043e-01  0.0000000000000000e+00 1.6090508086085340e-02 3.6403191119224021e-01  0.0000000000000000e+00 1.6169349735889241e-02 3.6896049184727714e-01  0.0000000000000000e+00 1.6255737843624416e-02 3.7412891596155629e-01  0.0000000000000000e+00 1.6350692240474803e-02 3.7957438055378345e-01  0.0000000000000000e+00 1.6454828007221655e-02 3.8530437409211399e-01  0.0000000000000000e+00 1.6570292280948497e-02 3.9136748857083220e-01  0.0000000000000000e+00 1.6697582687686417e-02 3.9779414377831329e-01  0.0000000000000000e+00 1.6838315608580540e-02 4.0457643689788436e-01  0.0000000000000000e+00 1.6993444621048799e-02 4.1171626484752671e-01  0.0000000000000000e+00 1.7164629270081892e-02 4.1924049997537155e-01  0.0000000000000000e+00 1.7352865071458952e-02 4.2714105319917162e-01  0.0000000000000000e+00 1.7559085047439017e-02 4.3537747745497979e-01  0.0000000000000000e+00 1.7783605286300311e-02 4.4391414194405487e-01  0.0000000000000000e+00 1.8026852022292900e-02 4.5270790379009207e-01  0.0000000000000000e+00 1.8289368687019577e-02 4.6173279284010205e-01  0.0000000000000000e+00 1.8569141294264093e-02 4.7089620037322327e-01  0.0000000000000000e+00 1.8870167189571820e-02 4.8022671082788032e-01  0.0000000000000000e+00 1.9188458768469700e-02 4.8962731595852987e-01  0.0000000000000000e+00 1.9525531002068511e-02 4.9908812090229299e-01  0.0000000000000000e+00 1.9883382517983540e-02 5.0863284901290851e-01  0.0000000000000000e+00 2.0262844939158361e-02 5.1827173028507600e-01  0.0000000000000000e+00 2.0664991597355555e-02 5.2798731850785607e-01  0.0000000000000000e+00 2.1093606933161733e-02 5.3783364504192366e-01  0.0000000000000000e+00 2.1553752922575727e-02 5.4789396556084036e-01  0.0000000000000000e+00 2.2050457878934629e-02 5.5822225392269176e-01  0.0000000000000000e+00 2.2590101848887569e-02 5.6886418389221938e-01  0.0000000000000000e+00 2.3179001974431693e-02 5.7988903847243989e-01  0.0000000000000000e+00 2.3826415814448415e-02 5.9134833698100076e-01  0.0000000000000000e+00 2.4539131255961216e-02 6.0326986398150118e-01  0.0000000000000000e+00 2.5325401336451607e-02 6.1565963004300162e-01  0.0000000000000000e+00 2.6193502507866194e-02 6.2849534541268071e-01  0.0000000000000000e+00 2.7150560168399542e-02 6.4175564241665706e-01  0.0000000000000000e+00 2.8200617527853553e-02 6.5534528344524545e-01  0.0000000000000000e+00 2.9347954152960608e-02 6.6917299097439675e-01  0.0000000000000000e+00 3.0595440013340889e-02 6.8314122392351317e-01  0.0000000000000000e+00 3.1942247194281861e-02 6.9715159216717126e-01  0.0000000000000000e+00 3.3389860876363683e-02 7.1109331782491869e-01  0.0000000000000000e+00 3.4942776409832302e-02 7.2494035605783980e-01  0.0000000000000000e+00 3.6601145108100634e-02 7.3863115783874711e-01  0.0000000000000000e+00 3.8372490982942924e-02 7.5214857116372302e-01  0.0000000000000000e+00 4.0267794123462416e-02 7.6552330536777247e-01  0.0000000000000000e+00 4.2301498451269827e-02 7.7878487958233034e-01  0.0000000000000000e+00 4.4495796947828466e-02 7.9198775902304763e-01  0.0000000000000000e+00 4.6876169998753769e-02 8.0519599564785915e-01  0.0000000000000000e+00 4.9461952605528998e-02 8.1839197416966714e-01  0.0000000000000000e+00 5.2284743891735423e-02 8.3162060475039234e-01  0.0000000000000000e+00 5.5359787207268307e-02 8.4482284612272851e-01  0.0000000000000000e+00 5.8710319689352405e-02 8.5795464118991982e-01  0.0000000000000000e+00 6.2339660085151530e-02 8.7092224479849023e-01  0.0000000000000000e+00 6.6249139234767399e-02 8.8361242451525701e-01  0.0000000000000000e+00 7.0421892668601188e-02 8.9589830109281032e-01  0.0000000000000000e+00 7.4853839058324628e-02 9.0770797288372573e-01  0.0000000000000000e+00 7.9506540612501578e-02 9.1892192532009898e-01  0.0000000000000000e+00 8.4373744527835290e-02 9.2951155012173248e-01  0.0000000000000000e+00 8.9444310130006047e-02 9.3945878487548595e-01  0.0000000000000000e+00 9.4716831339005006e-02 9.4876467965106259e-01  0.0000000000000000e+00 1.0019948476826891e-01 9.5745606329503041e-01  0.0000000000000000e+00 1.0591668127420545e-01 9.6556764909597448e-01  0.0000000000000000e+00 1.1190299715779924e-01 9.7313465282462341e-01  0.0000000000000000e+00 1.1818733071822170e-01 9.8016861343285855e-01  0.0000000000000000e+00 1.2479394589353220e-01 9.8666179957844935e-01  0.0000000000000000e+00 1.3175019761953774e-01 9.9260400877370081e-01  0.0000000000000000e+00 1.3904567982525298e-01 9.9794987459818651e-01  0.0000000000000000e+00 1.4665770633127473e-01 1.0026532203209313e+00  0.0000000000000000e+00 1.5455801593199800e-01 1.0066814854617869e+00  0.0000000000000000e+00 1.6268893586574906e-01 1.0100035264823024e+00  0.0000000000000000e+00 1.7100297420875038e-01 1.0126101503748366e+00  0.0000000000000000e+00 1.7944979434007963e-01 1.0145141332886454e+00  0.0000000000000000e+00 1.8798673153558601e-01 1.0157367751465431e+00  0.0000000000000000e+00 1.9662947141544160e-01 1.0163063853381586e+00  0.0000000000000000e+00 2.0534666758474915e-01 1.0162680199516549e+00  0.0000000000000000e+00 2.1418465617941060e-01 1.0156291040873306e+00  0.0000000000000000e+00 2.2317931525765153e-01 1.0144096014338588e+00  0.0000000000000000e+00 2.3237276304205814e-01 1.0126036734011532e+00  0.0000000000000000e+00 2.4177392479326440e-01 1.0102186636657025e+00  0.0000000000000000e+00 2.5140761242903992e-01 1.0072368585851585e+00  0.0000000000000000e+00 2.6125190188222713e-01 1.0036644593469595e+00  0.0000000000000000e+00 2.7126040210591840e-01 9.9951826853951997e-01  0.0000000000000000e+00 2.8138285290619097e-01 9.9482790786071096e-01  0.0000000000000000e+00 2.9154465504140792e-01 9.8964254349616110e-01  0.0000000000000000e+00 3.0169441687349513e-01 9.8400989570560615e-01  0.0000000000000000e+00 3.1178350247476622e-01 9.7798401595672313e-01  0.0000000000000000e+00 3.2179581291220777e-01 9.7160248138221650e-01  0.0000000000000000e+00 3.3173631279661442e-01 9.6488825858046678e-01  0.0000000000000000e+00 3.5152179568022135e-01 9.5046378391245956e-01  0.0000000000000000e+00 3.6145029486006286e-01 9.4272154294240307e-01  0.0000000000000000e+00 3.7145414100605700e-01 9.3459597276927153e-01  0.0000000000000000e+00 3.8153722681563695e-01 9.2608890782666420e-01  0.0000000000000000e+00 3.9169087057482449e-01 9.1721086297520837e-01  0.0000000000000000e+00 4.0187484722529865e-01 9.0800232441563367e-01  0.0000000000000000e+00 4.1203475768121878e-01 8.9852166808574685e-01  0.0000000000000000e+00 4.2210941427363435e-01 8.8883870723128433e-01  0.0000000000000000e+00 4.3205841431676567e-01 8.7900822937456713e-01  0.0000000000000000e+00 4.4182168862608479e-01 8.6911105044217107e-01  0.0000000000000000e+00 4.5141790971775519e-01 8.5914255166369202e-01  0.0000000000000000e+00 4.6082943763867440e-01 8.4914670533848247e-01  0.0000000000000000e+00 4.7012346937875243e-01 8.3906322155170820e-01  0.0000000000000000e+00 4.7932418329627463e-01 8.2887811935601108e-01  0.0000000000000000e+00 4.8847853219211762e-01 8.1854907350936346e-01  0.0000000000000000e+00 4.9761132238865619e-01 8.0805234283659899e-01  0.0000000000000000e+00 5.0674357596153652e-01 7.9737089196182864e-01  0.0000000000000000e+00 5.1585126380159263e-01 7.8653521822630823e-01  0.0000000000000000e+00 5.2490577519412907e-01 7.7558485145499168e-01  0.0000000000000000e+00 5.3384780829528766e-01 7.6459960965448104e-01  0.0000000000000000e+00 5.4264629023916189e-01 7.5362738031918008e-01  0.0000000000000000e+00 5.5124741076431105e-01 7.4274637447308212e-01  0.0000000000000000e+00 5.5963081579438356e-01 7.3199557068034882e-01  0.0000000000000000e+00 5.6780145561588902e-01 7.2138144891092792e-01  0.0000000000000000e+00 5.7578282988767371e-01 7.1088517433295195e-01  0.0000000000000000e+00 5.8361345778490814e-01 7.0046567831514539e-01  0.0000000000000000e+00 5.9132650566283484e-01 6.9008615633773973e-01  0.0000000000000000e+00 5.9897041166210374e-01 6.7968764175984120e-01  0.0000000000000000e+00 6.0655796205024071e-01 6.6925662099670369e-01  0.0000000000000000e+00 6.1410814671626457e-01 6.5876961930614286e-01  0.0000000000000000e+00 6.2159838413666280e-01 6.4826160355449070e-01  0.0000000000000000e+00 6.2898465902514056e-01 6.3779800303992951e-01  0.0000000000000000e+00 6.3624339918862616e-01 6.2741793931317102e-01  0.0000000000000000e+00 6.4333460127288977e-01 6.1718500094648487e-01  0.0000000000000000e+00 6.5022839797014020e-01 6.0714998068957116e-01  0.0000000000000000e+00 6.5691705725769600e-01 5.9733190953717841e-01  0.0000000000000000e+00 6.6340676962265543e-01 5.8772990637104205e-01  0.0000000000000000e+00 6.6971507184590662e-01 5.7832431087392044e-01  0.0000000000000000e+00 6.7587213906707078e-01 5.6907694467112047e-01  0.0000000000000000e+00 6.8192747218153571e-01 5.5991797351679440e-01  0.0000000000000000e+00 6.8789103702063570e-01 5.5083542889890258e-01  0.0000000000000000e+00 6.9379799025547195e-01 5.4177866704642019e-01  0.0000000000000000e+00 6.9965274184132953e-01 5.3274255256890590e-01  0.0000000000000000e+00 7.0544140297187929e-01 5.2375096751948658e-01  0.0000000000000000e+00 7.1115156017642922e-01 5.1482553543341703e-01  0.0000000000000000e+00 7.1674258232754229e-01 5.0603222663699743e-01  0.0000000000000000e+00 7.2218657470400305e-01 4.9741907667231622e-01  0.0000000000000000e+00 7.2747656879305778e-01 4.8900157960806884e-01  0.0000000000000000e+00 7.3257995953192412e-01 4.8083554105303633e-01  0.0000000000000000e+00 7.3750830114285715e-01 4.7290769044665143e-01  0.0000000000000000e+00 7.4226978964281132e-01 4.6520892293110988e-01  0.0000000000000000e+00 7.4688878034175799e-01 4.5770397725146067e-01  0.0000000000000000e+00 7.5140675669132884e-01 4.5032810181816685e-01  0.0000000000000000e+00 7.5583033983246084e-01 4.4307311571619917e-01  0.0000000000000000e+00 7.6018387057141013e-01 4.3590085704700876e-01  0.0000000000000000e+00 7.6449898019648421e-01 4.2876079355086588e-01  0.0000000000000000e+00 7.6875467779146034e-01 4.2168826766449008e-01  0.0000000000000000e+00 7.7295759554228227e-01 4.1467375283743629e-01  0.0000000000000000e+00 7.7709412801734434e-01 4.0774099569911026e-01  0.0000000000000000e+00 7.8114639144737419e-01 4.0092143772191341e-01  0.0000000000000000e+00 7.8508211016896201e-01 3.9427131625919276e-01  0.0000000000000000e+00 7.8888044304465421e-01 3.8782816499179196e-01  0.0000000000000000e+00 7.9254318806870705e-01 3.8159141506513689e-01  0.0000000000000000e+00 7.9606812171191199e-01 3.7556729021140511e-01  0.0000000000000000e+00 7.9945780191127436e-01 3.6975383453768551e-01  0.0000000000000000e+00 8.0272353581078304e-01 3.6413389633865767e-01  0.0000000000000000e+00 8.0587991833933015e-01 3.5868427869356229e-01  0.0000000000000000e+00 8.0895100000827080e-01 3.5336508654172233e-01  0.0000000000000000e+00 8.1196096624540615e-01 3.4813563903302591e-01  0.0000000000000000e+00 8.1490867088078600e-01 3.4299889745260503e-01  0.0000000000000000e+00 8.1780615607845886e-01 3.3793480545890753e-01  0.0000000000000000e+00 8.2067988382098733e-01 3.3289755800257476e-01  0.0000000000000000e+00 8.2352841660609444e-01 3.2789005095718043e-01  0.0000000000000000e+00 8.2632248834343625e-01 3.2296413071941693e-01  0.0000000000000000e+00 8.2905448171049978e-01 3.1813389460389435e-01  0.0000000000000000e+00 8.3172629659387221e-01 3.1339675108958720e-01  0.0000000000000000e+00 8.3431703842095384e-01 3.0879056394579529e-01  0.0000000000000000e+00 8.3681682316485484e-01 3.0433393288019539e-01  0.0000000000000000e+00 8.3921546545564718e-01 3.0004614794701523e-01  0.0000000000000000e+00 8.4150886203186193e-01 2.9593579511869356e-01  0.0000000000000000e+00 8.4370261684957282e-01 2.9199408319367287e-01  0.0000000000000000e+00 8.4580116495829916e-01 2.8821423069014723e-01  0.0000000000000000e+00 8.4781049955977772e-01 2.8458652425969216e-01  0.0000000000000000e+00 8.4974069020161747e-01 2.8109377889408960e-01  0.0000000000000000e+00 8.5160263899033606e-01 2.7771711531723886e-01  0.0000000000000000e+00 8.5340779351455809e-01 2.7443650276710679e-01  0.0000000000000000e+00 8.5516653970316647e-01 2.7123364230561925e-01  0.0000000000000000e+00 8.5688812747905474e-01 2.6809214675637294e-01  0.0000000000000000e+00 8.5857854727665239e-01 2.6500143917601521e-01  0.0000000000000000e+00 8.6024166639904875e-01 2.6195472160991390e-01  0.0000000000000000e+00 8.6187950341424990e-01 2.5894851344803660e-01  0.0000000000000000e+00 8.6349049670800671e-01 2.5598586706712123e-01  0.0000000000000000e+00 8.6507277269866001e-01 2.5307041239395989e-01  0.0000000000000000e+00 8.6662104712042110e-01 2.5021208405327827e-01  0.0000000000000000e+00 8.6813004854582809e-01 2.4742086580439282e-01  0.0000000000000000e+00 8.6959454793632063e-01 2.4470672072259025e-01  0.0000000000000000e+00 8.7100786567422495e-01 2.4208238754051581e-01  0.0000000000000000e+00 8.7236241765137046e-01 2.3956240651532112e-01  0.0000000000000000e+00 8.7366303862159855e-01 2.3713821703718657e-01  0.0000000000000000e+00 8.7490982280149043e-01 2.3481011572340349e-01  0.0000000000000000e+00 8.7609083579840452e-01 2.3260081095493404e-01  0.0000000000000000e+00 8.7720972975441791e-01 2.3050400481247751e-01  0.0000000000000000e+00 8.7826120349325287e-01 2.2853013013067569e-01  0.0000000000000000e+00 8.7926434585499014e-01 2.2664396758254163e-01  0.0000000000000000e+00 8.8023883826131732e-01 2.2480906723218169e-01  0.0000000000000000e+00 8.8110534549603359e-01 2.2317440858444185e-01  0.0000000000000000e+00 8.8194831755741432e-01 2.2158220159497125e-01  0.0000000000000000e+00 8.8274472955878514e-01 2.2007589263545027e-01  0.0000000000000000e+00 8.8351634393269329e-01 2.1861476738937929e-01  0.0000000000000000e+00 8.8425641103858388e-01 2.1721174910365754e-01  0.0000000000000000e+00 8.8494150865251031e-01 2.1591119584925456e-01  0.0000000000000000e+00 8.8560168717819843e-01 2.1465664694903491e-01  0.0000000000000000e+00 8.8623845834563786e-01 2.1344539195698811e-01  0.0000000000000000e+00 8.8684240793481184e-01 2.1229538603534198e-01  0.0000000000000000e+00 8.8741919842635386e-01 2.1119604066201220e-01  0.0000000000000000e+00 8.8797340724394025e-01 2.1013880264880722e-01  0.0000000000000000e+00 8.8849796104434031e-01 2.0913723588055899e-01  0.0000000000000000e+00 8.8900224860096555e-01 2.0817360835827178e-01  0.0000000000000000e+00 8.8949009333125528e-01 2.0724078165386559e-01  0.0000000000000000e+00 8.8992961455104469e-01 2.0639942900485142e-01  0.0000000000000000e+00 8.9037769163775671e-01 2.0554147297441125e-01  0.0000000000000000e+00 8.9075784092783195e-01 2.0481260350289954e-01  0.0000000000000000e+00 8.9114288285054211e-01 2.0407425356947417e-01  0.0000000000000000e+00 8.9149833151024205e-01 2.0339217755984793e-01  0.0000000000000000e+00 8.9183174445498170e-01 2.0275205890825460e-01  0.0000000000000000e+00 8.9212962485861858e-01 2.0217974686685028e-01  0.0000000000000000e+00 8.9242460917476696e-01 2.0161299132891702e-01  0.0000000000000000e+00 8.9263589543202060e-01 2.0120619247611476e-01  0.0000000000000000e+00 8.9286337009410077e-01 2.0076865916685238e-01  0.0000000000000000e+00 8.9305565125114272e-01 2.0039857336250952e-01  0.0000000000000000e+00 8.9336260615109264e-01 1.9980754351645871e-01  0.0000000000000000e+00 8.9348055627838152e-01 1.9958041691604986e-01  0.0000000000000000e+00 8.9356825867220213e-01 1.9941147964006334e-01  0.0000000000000000e+00 8.9361903148548627e-01 1.9931354547836250e-01  0.0000000000000000e+00 8.9363529925654606e-01 1.9928198401520428e-01  0.0000000000000000e+00 8.9365803221143170e-01 1.9923840124685338e-01  0.0000000000000000e+00 8.9361882491144173e-01 1.9931371465550096e-01  0.0000000000000000e+00 8.9358840754689295e-01 1.9937256324875710e-01  0.0000000000000000e+00 8.9350257241397846e-01 1.9953776139600565e-01  0.0000000000000000e+00 8.9340078083616070e-01 1.9973380329962839e-01  0.0000000000000000e+00 8.9327526957731729e-01 1.9997550465523437e-01  0.0000000000000000e+00 8.9312199474232656e-01 2.0027058284367522e-01  0.0000000000000000e+00 8.9294211457818806e-01 2.0061675604721912e-01  0.0000000000000000e+00 8.9274468044103039e-01 2.0099668922458941e-01  0.0000000000000000e+00 8.9252642635958224e-01 2.0141657269767624e-01  0.0000000000000000e+00 8.9227449420365212e-01 2.0190088367980746e-01  0.0000000000000000e+00 8.9200738594328832e-01 2.0241424825896184e-01  0.0000000000000000e+00 8.9171021598143196e-01 2.0298500756498336e-01  0.0000000000000000e+00 8.9137800400653588e-01 2.0362257312018153e-01  0.0000000000000000e+00 8.9104912377834078e-01 2.0425369934763726e-01  0.0000000000