<?xml version="1.0"?>
<VTKFile type="UnstructuredGrid"  version="0.1"  >
<UnstructuredGrid>
<Piece  NumberOfPoints="25605" NumberOfCells="50684">
<Points>
<DataArray  type="Float64"  NumberOfComponents="3"  format="ascii">500 250 0  0 250 0  250 500 0  250 0 0  252.9976310880008 499.9820277697183 0  255.994831180465 499.9281136629446 0  258.9911693467 499.8382654314166 0  261.9862147844171 499.7124959931758 0  264.9795368730259 499.550823430959 0  267.9707052380909 499.3532709896657 0  270.9592898147818 499.1198670729815 0  273.944860911003 498.850645239173 0  276.9269892620302 498.5456441969613 0  279.9052461102784 498.204907798141 0  282.879203246639 497.8284850332306 0  285.8484330760252 497.4164300243493 0  288.812508703066 496.9688020138868 0  291.7710039592635 496.4856653605544 0  294.7234934645729 495.9670895309458 0  297.6695527219374 495.4131490839284 0  300.6087581526373 494.8239236640241 0  303.5406871632312 494.1994979890193 0  306.4649182085955 493.5399618372653 0  309.3810308492501 492.8454100354388 0  312.2886058121011 492.1159424449053 0  315.1872250543244 491.3516639464432 0  318.0764718164482 490.552684426976 0  320.9559306911491 489.7191187614222 0  323.8251876776197 488.8510867975364 0  326.6838302398962 487.9487133391117 0  329.5314473625203 487.0121281293906 0  332.3676296259557 486.0414658270902 0  335.1919692490408 485.0368659922747 0  338.0040601519906 483.9984730650284 0  340.8034980252745 482.926436340691 0  343.5898803648273 481.8209099570125 0  346.3628065522297 480.6820528636277 0  349.1218779058009 479.5100288014175 0  351.866697726272 478.3050062840155 0  354.5968713702315 477.0671585667096 0  357.3120063039883 475.7966636224122 0  360.0117121560444 474.4937041177227 0  362.6956007624657 473.158467392091 0  365.3632862410136 471.7911454221605 0  368.0143850392318 470.39193479756 0  370.6485159774368 468.9610366993228 0  373.2653003309281 467.4986568563726 0  375.8643618621848 466.0050055277077 0  378.4453268904447 464.4802974634425 0  381.0078243277097 462.9247518841339 0  383.5514857466806 461.3385924407896 0  386.0759454147861 459.7220471945478 0  388.5808403686633 458.0753485704519 0  391.0658104727646 456.398733318938 0  393.5304984398443 454.6924425024281 0  395.9745499014433 452.9567214483695 0  398.3976134594079 451.1918197133078 0  400.7993407313268 449.3979910505549 0  403.1793863983767 447.5754933756127 0  405.5374082633365 445.7245887228382 0  407.8730672875487 443.8455432173283 0  410.1860276678057 441.9386270139729 0  412.4759568502628 440.0041142859584 0  414.7425255888164 438.0422831775295 0  416.9854079982472 436.0534157591817 0  419.2042816111551 434.0377979776246 0  421.3988273934515 431.9957196423856 0  423.5687298230711 429.9274743545459 0  425.7136769203488 427.833359477718 0  427.8333602660664 425.7136761224903 0  429.9274751166117 423.5687290330868 0  431.9957203865596 421.3988266032683 0  434.0377986976932 419.2042808279605 0  436.0534164531565 416.9854072250276 0  438.0422838486247 414.7425248228072 0  440.0041149354581 412.4759560907189 0  441.9386276454979 410.1860269110977 0  443.8455438341414 407.8730665301906 0  445.7245893245478 405.5374075061595 0  447.5754939498422 403.1793856577179 0  449.3979916037435 400.7993399998601 0  451.1918202566634 398.3976127227471 0  452.9567219786559 395.9745491641559 0  454.6924430171686 393.53049770576 0  456.3987338202434 391.0658097392857 0  458.0753490553683 388.5808396405746 0  459.7220476673142 386.0759446861523 0  461.3385928978555 383.5514850233965 0  462.924752323721 381.0078236132563 0  464.4802978831972 378.4453261895309 0  466.005005928237 375.8643611748071 0  467.4986572464557 373.2652996426359 0  468.9610370690891 370.64851530636 0  470.3919351512159 368.0143843787793 0  471.7911457549822 365.363285601149 0  473.1584677051019 362.6956001426453 0  474.4937044170927 360.0117115451396 0  475.7966639080153 357.3120057030471 0  477.0671588375024 354.5968707823731 0  478.3050065468899 351.8666971371142 0  479.5100290514928 349.1218773267684 0  480.68205310082 346.3628059844174 0  481.8209101826405 343.5898798059497 0  482.926436550004 340.8034974883511 0  483.9984732613996 338.0040596298491 0  485.0368661774559 335.1919687381426 0  486.0414660017697 332.3676291253755 0  487.0121282892932 329.5314468859938 0  487.9487134870012 326.6838297809975 0  488.8510869337421 323.825187236945 0  489.7191188882317 320.9559302627332 0  490.5526845449373 318.0764713996244 0  491.3516640573307 315.1872246437704 0  492.1159425458163 312.2886054198597 0  492.8454101279934 309.3810304707378 0  493.5399619220304 306.4649178429931 0  494.1994980644915 303.5406868190015 0  494.8239237308971 300.6087578291331 0  495.4131491423161 297.6695524213444 0  495.9670895813101 294.7234931875826 0  496.4856654030534 291.7710037084818 0  496.9688020494549 288.8125084767419 0  497.416430053242 285.8484328766153 0  497.8284850586459 282.8792030550702 0  498.2049078189591 279.9052459374942 0  498.5456442137286 276.9269891072627 0  498.850645253019 273.9448607671062 0  499.1198670835989 270.9592896885852 0  499.3532709967772 267.9707051394148 0  499.5508234355897 264.9795367958812 0  499.7124959959075 261.9862147275054 0  499.8382654331632 258.9911692981657 0  499.928113663985 255.99483113709 0  499.9820277699785 252.9976310663071 0  499.9820277697257 247.0023689126091 0  499.9281136630343 244.0051688232745 0  499.8382654314717 241.0088306548307 0  499.7124959931211 238.0137852144455 0  499.5508234310553 235.0204631285785 0  499.3532709900699 232.0292947675166 0  499.119867073792 229.0407101948513 0  498.8506452406773 226.0551391046306 0  498.5456441987692 223.0730107546571 0  498.2049078002218 220.0947539069917 0  497.8284850356648 217.120796771709 0  497.4164300267099 214.151566940267 0  496.968802017216 211.187491318118 0  496.4856653659872 208.2289960727951 0  495.9670895372035 205.2765065698432 0  495.4131490907147 202.330447313 0  494.8239236713522 199.3912418828135 0  494.1994979969027 196.4593128727251 0  493.5399618460726 193.5350818293917 0  492.8454100458835 190.6189691934644 0  492.1159424557956 187.7113942302294 0  491.3516639574156 184.8127749862999 0  490.5526844387521 181.923528225163 0  489.7191187738694 179.0440693509028 0  488.851086810667 176.1748123648628 0  487.948713352938 173.3161698030064 0  487.0121281439243 170.4685526807917 0  486.0414658415049 167.6323704153526 0  485.0368660060558 164.8080307889799 0  483.9984730779887 161.9959398824702 0  482.9264363544502 159.1965020100202 0  481.8209099702043 156.4101196678486 0  480.6820528745703 153.6371934739656 0  479.5100288124721 150.8781221197951 0  478.3050062927852 148.1333022933829 0  477.0671585723666 145.403128642049 0  475.796663627405 142.687993706517 0  474.4937041236649 139.9882878560814 0  473.1584673984938 137.3043992502131 0  471.7911454319914 134.6367137778867 0  470.3919348096422 131.9856149833316 0  468.9610367113798 129.3514840444451 0  467.49865687022 126.7346996935054 0  466.0050055427385 124.1356381636107 0  464.4802974781252 121.5546731340727 0  462.9247519005733 118.992175699009 0  461.3385924615702 116.4485142862037 0  459.722047215144 113.924054616957 0  458.0753485880027 111.4191596576888 0  456.3987333337139 108.9341895488548 0  454.692442514023 106.4695015766915 0  452.95672145825 104.0254501122942 0  451.1918197247282 101.6023865560754 0  449.3979910627008 99.20065928473332 0  447.5754933882043 96.82061361786421 0  445.7245887341124 94.46259175085058 0  443.8455432269008 92.12693272420489 0  441.9386270210269 89.81397234064673 0  440.0041142971544 87.52404316283014 0  438.0422831897421 85.25747442512349 0  436.0534157701649 83.01459201399018 0  434.0377979907771 80.79571840315057 0  431.9957196541004 78.60117261898753 0  429.9274743620823 76.43127018474144 0  427.8333594859367 74.28632308796901 0  425.7136761283247 72.16663973969838 0  423.5687290359737 70.07252488617331 0  421.3988265987173 68.00427960915448 0  419.2042808240311 65.962201298694 0  416.9854072196475 63.94658354201471 0  414.742524818212 61.95771614734943 0  412.4759560828471 59.99588505781063 0  410.1860269003736 58.06137234555209 0  407.8730665183855 56.15445615624427 0  405.5374074948106 54.27541066643354 0  403.1793856410161 52.424506037209 0  400.7993399855741 50.60200838545225 0  398.3976127114923 48.80817973503514 0  395.9745491514178 47.04327801218227 0  393.5304976958927 45.30755697591243 0  391.0658097308475 43.60126617398947 0  388.5808396359472 41.92465094154986 0  386.0759446832285 40.27795233078868 0  383.5514850239504 38.66140710249451 0  381.007823619977 37.07524768041412 0  378.4453262000283 35.51970212308933 0  375.8643611921311 33.99499408185753 0  373.2652996617874 32.50134276439832 0  370.6485153256615 31.03896294154612 0  368.0143843882092 29.60806485383361 0  365.3632855907917 28.2088542396306 0  362.6956001322776 26.84153228966238 0  360.0117115354126 25.50629557814059 0  357.3120057003284 24.20333609069269 0  354.596870775138 22.93284115916481 0  351.8666971306181 21.69499345021163 0  349.121877320111 20.48997094563194 0  346.3628059771881 19.31794689616012 0  343.5898798100648 18.17908981902079 0  340.8034974914794 17.07356345121562 0  338.0040596332272 16.00152673987083 0  335.1919687416658 14.9631338238211 0  332.3676291322006 13.95853400061199 0  329.5314468917599 12.98787171264172 0  326.6838297822748 12.05128651341042 0  323.8251872378164 11.14891306652726 0  320.9559302656854 10.28088111264219 0  318.076471404611 9.447315456473888 0  315.1872246503818 8.648335944454999 0  312.2886054290304 7.88405745654299 0  309.3810304838133 7.154589875203868 0  306.4649178487239 6.460038079298243 0  303.5406868253978 5.800501936910877 0  300.6087578339258 5.176076270093546 0  297.669552426172 4.586850858621602 0  294.7234931936628 4.0329104197954 0  291.7710037123022 3.514334597594029 0  288.8125084726372 3.031197949900047 0  285.8484328697872 2.58356994576863 0  282.8792030484304 2.171514940473202 0  279.905245932244 1.795092180408318 0  276.9269891008954 1.454
[...]
<PointData  Vectors="f_12"> 
<DataArray  type="Float64"  Name="f_12"  NumberOfComponents="3" format="ascii">0.0000000000000000e+00 3.2123566847603874e-01 9.7197263413996005e-01  0.0000000000000000e+00 6.1251834865514743e-01 6.6099447254980770e-01  0.0000000000000000e+00 1.5293740103334823e-02 2.7743653382804545e-01  0.0000000000000000e+00 8.9104463233758979e-01 2.0426679420567420e-01  0.0000000000000000e+00 1.5291222340544926e-02 2.7630678905686140e-01  0.0000000000000000e+00 1.5289152787887964e-02 2.7530596507178029e-01  0.0000000000000000e+00 1.5287538663799201e-02 2.7446824714311191e-01  0.0000000000000000e+00 1.5286336397761589e-02 2.7379325396652487e-01  0.0000000000000000e+00 1.5285446427195089e-02 2.7326811755646169e-01  0.0000000000000000e+00 1.5284819275968076e-02 2.7288408429251521e-01  0.0000000000000000e+00 1.5284439232780372e-02 2.7264785487208337e-01  0.0000000000000000e+00 1.5284279100710495e-02 2.7255343146181582e-01  0.0000000000000000e+00 1.5284330600437861e-02 2.7260099256833165e-01  0.0000000000000000e+00 1.5284602723274825e-02 2.7279230184157566e-01  0.0000000000000000e+00 1.5285101246744931e-02 2.7312258724340477e-01  0.0000000000000000e+00 1.5285879940263812e-02 2.7360930506512227e-01  0.0000000000000000e+00 1.5286944405368159e-02 2.7423274891511201e-01  0.0000000000000000e+00 1.5288327733088060e-02 2.7499277962369850e-01  0.0000000000000000e+00 1.5290117697628457e-02 2.7590287162178967e-01  0.0000000000000000e+00 1.5292370389414845e-02 2.7695754602076228e-01  0.0000000000000000e+00 1.5295154714608324e-02 2.7815831420443771e-01  0.0000000000000000e+00 1.5298549814826557e-02 2.7949708111626348e-01  0.0000000000000000e+00 1.5302687614829190e-02 2.8097526309897630e-01  0.0000000000000000e+00 1.5307652893258762e-02 2.8261893268832228e-01  0.0000000000000000e+00 1.5313611463498418e-02 2.8440916418999956e-01  0.0000000000000000e+00 1.5320598868866765e-02 2.8632606333458860e-01  0.0000000000000000e+00 1.5328740050979372e-02 2.8838498536606777e-01  0.0000000000000000e+00 1.5338242483444845e-02 2.9059111955356975e-01  0.0000000000000000e+00 1.5349173044025903e-02 2.9293204635436726e-01  0.0000000000000000e+00 1.5361691321935021e-02 2.9540109578427792e-01  0.0000000000000000e+00 1.5376003860204060e-02 2.9799483834032509e-01  0.0000000000000000e+00 1.5391927703650207e-02 3.0070617815755923e-01  0.0000000000000000e+00 1.5409801787797035e-02 3.0352474523772838e-01  0.0000000000000000e+00 1.5429706557793393e-02 3.0644616534921953e-01  0.0000000000000000e+00 1.5451750110022561e-02 3.0947847237695197e-01  0.0000000000000000e+00 1.5475939446718675e-02 3.1259277478701858e-01  0.0000000000000000e+00 1.5502202865872368e-02 3.1577893457896494e-01  0.0000000000000000e+00 1.5530748666831641e-02 3.1903817973499754e-01  0.0000000000000000e+00 1.5561549835102969e-02 3.2236634413229454e-01  0.0000000000000000e+00 1.5594728643839553e-02 3.2576618312211836e-01  0.0000000000000000e+00 1.5630054932222123e-02 3.2919786429928388e-01  0.0000000000000000e+00 1.5668376120858682e-02 3.3273442524231767e-01  0.0000000000000000e+00 1.5708997200763554e-02 3.3630295257499032e-01  0.0000000000000000e+00 1.5752220453580615e-02 3.3994009453868579e-01  0.0000000000000000e+00 1.5798350951661266e-02 3.4364827933017844e-01  0.0000000000000000e+00 1.5847636562523325e-02 3.4743674815099657e-01  0.0000000000000000e+00 1.5900258649143798e-02 3.5132100375076109e-01  0.0000000000000000e+00 1.5956682452233615e-02 3.5531417931195586e-01  0.0000000000000000e+00 1.6017386162000866e-02 3.5943651440268753e-01  0.0000000000000000e+00 1.6082715980781512e-02 3.6371327748014137e-01  0.0000000000000000e+00 1.6153681662835147e-02 3.6816264006438293e-01  0.0000000000000000e+00 1.6230698302368309e-02 3.7281843580542218e-01  0.0000000000000000e+00 1.6314848574504000e-02 3.7770533521432886e-01  0.0000000000000000e+00 1.6407085305380445e-02 3.8285731027594033e-01  0.0000000000000000e+00 1.6508037798484268e-02 3.8828439509985457e-01  0.0000000000000000e+00 1.6619700877203943e-02 3.9403160218537586e-01  0.0000000000000000e+00 1.6742483400742986e-02 4.0012332572133880e-01  0.0000000000000000e+00 1.6877996225388946e-02 4.0655955127015059e-01  0.0000000000000000e+00 1.7027204115623470e-02 4.1334545319860144e-01  0.0000000000000000e+00 1.7191584994248856e-02 4.2050326293427243e-01  0.0000000000000000e+00 1.7372043273595102e-02 4.2802516822560416e-01  0.0000000000000000e+00 1.7569601206641305e-02 4.3588051554272894e-01  0.0000000000000000e+00 1.7784591563768021e-02 4.4403776400064399e-01  0.0000000000000000e+00 1.8017472445778497e-02 4.5245826513353560e-01  0.0000000000000000e+00 1.8268701280846528e-02 4.6111557097308098e-01  0.0000000000000000e+00 1.8536552402256639e-02 4.6992643483059415e-01  0.0000000000000000e+00 1.8824403740955575e-02 4.7890648333781233e-01  0.0000000000000000e+00 1.9128712940272196e-02 4.8796844871911871e-01  0.0000000000000000e+00 1.9450580344152670e-02 4.9709319048157746e-01  0.0000000000000000e+00 1.9791393357467772e-02 5.0629111793622317e-01  0.0000000000000000e+00 2.0151389649559301e-02 5.1556018288931171e-01  0.0000000000000000e+00 2.0531368970851054e-02 5.2488181556635682e-01  0.0000000000000000e+00 2.0934288968445944e-02 5.3429873244730219e-01  0.0000000000000000e+00 2.1363937182482043e-02 5.4387519632562575e-01  0.0000000000000000e+00 2.1824247147644173e-02 5.5365567334865462e-01  0.0000000000000000e+00 2.2320807091093561e-02 5.6368834187033612e-01  0.0000000000000000e+00 2.2858961746233076e-02 5.7404103724919253e-01  0.0000000000000000e+00 2.3446885445631612e-02 5.8477062730503426e-01  0.0000000000000000e+00 2.4090791707042758e-02 5.9591633940564226e-01  0.0000000000000000e+00 2.4798681056397039e-02 6.0750637903409599e-01  0.0000000000000000e+00 2.5578858961977737e-02 6.1954402172961354e-01  0.0000000000000000e+00 2.6438407875405592e-02 6.3202651829002943e-01  0.0000000000000000e+00 2.7382356094393382e-02 6.4488811399677970e-01  0.0000000000000000e+00 2.8416398755934835e-02 6.5806654465974679e-01  0.0000000000000000e+00 2.9544129073753766e-02 6.7147458792078862e-01  0.0000000000000000e+00 3.0765335062295781e-02 6.8501542115240732e-01  0.0000000000000000e+00 3.2082306787627309e-02 6.9858121161203623e-01  0.0000000000000000e+00 3.3497317336598643e-02 7.1211836565149078e-01  0.0000000000000000e+00 3.5008034535213353e-02 7.2553763946719707e-01  0.0000000000000000e+00 3.6618672547833082e-02 7.3879888185239107e-01  0.0000000000000000e+00 3.8334546018610104e-02 7.5190068595750548e-01  0.0000000000000000e+00 4.0164184621386580e-02 7.6485022834224448e-01  0.0000000000000000e+00 4.2123408119352744e-02 7.7768976745340201e-01  0.0000000000000000e+00 4.4230915682695750e-02 7.9047978227186044e-01  0.0000000000000000e+00 4.6504537776212787e-02 8.0322805869672298e-01  0.0000000000000000e+00 4.8973255590090435e-02 8.1600643501300818e-01  0.0000000000000000e+00 5.1655543488657821e-02 8.2879756092186296e-01  0.0000000000000000e+00 5.4580879492903786e-02 8.4160770700650245e-01  0.0000000000000000e+00 5.7760827387506444e-02 8.5437794595985472e-01  0.0000000000000000e+00 6.1210058660727110e-02 8.6703531249204979e-01  0.0000000000000000e+00 6.4925487493019240e-02 8.7946903749170957e-01  0.0000000000000000e+00 6.8909532306462101e-02 8.9159714991017869e-01  0.0000000000000000e+00 7.3133167562879561e-02 9.0327928210561304e-01  0.0000000000000000e+00 7.7587598304172029e-02 9.1445019378760373e-01  0.0000000000000000e+00 8.2251325287771043e-02 9.2504274245339901e-01  0.0000000000000000e+00 8.7110120534076491e-02 9.3501999084341580e-01  0.0000000000000000e+00 9.2153489924292661e-02 9.4437560811672461e-01  0.0000000000000000e+00 9.7387850330973719e-02 9.5312929549465297e-01  0.0000000000000000e+00 1.0283304005297013e-01 9.6131772502935753e-01  0.0000000000000000e+00 1.0851155285217698e-01 9.6896908580222296e-01  0.0000000000000000e+00 1.1445369435287840e-01 9.7610551345110819e-01  0.0000000000000000e+00 1.2069851040833084e-01 9.8274822197745015e-01  0.0000000000000000e+00 1.2726297800247752e-01 9.8887987897277552e-01  0.0000000000000000e+00 1.3415811779468340e-01 9.9447270660868581e-01  0.0000000000000000e+00 1.4138853692235623e-01 9.9949657314833940e-01  0.0000000000000000e+00 1.4892111675870662e-01 1.0039013145805076e+00  0.0000000000000000e+00 1.5672326770640918e-01 1.0076511692851939e+00  0.0000000000000000e+00 1.6474534077376199e-01 1.0107260381501415e+00  0.0000000000000000e+00 1.7292430660056432e-01 1.0131140789480875e+00  0.0000000000000000e+00 1.8123957245886449e-01 1.0148273990912169e+00  0.0000000000000000e+00 1.8962667960271384e-01 1.0159008474077500e+00  0.0000000000000000e+00 1.9809861699794137e-01 1.0163514747757576e+00  0.0000000000000000e+00 2.0666214669205546e-01 1.0162150754039057e+00  0.0000000000000000e+00 2.1534530016968123e-01 1.0155062268929738e+00  0.0000000000000000e+00 2.2417357958827738e-01 1.0142452882144197e+00  0.0000000000000000e+00 2.3320033137270021e-01 1.0124215721077845e+00  0.0000000000000000e+00 2.4244512719485248e-01 1.0100320721837086e+00  0.0000000000000000e+00 2.5191146093540367e-01 1.0070702797813464e+00  0.0000000000000000e+00 2.6159002390073671e-01 1.0035363965667128e+00  0.0000000000000000e+00 2.7143462446868410e-01 9.9944608061891282e-01  0.0000000000000000e+00 2.8139658272607782e-01 9.9482502449440213e-01  0.0000000000000000e+00 2.9140772312933561e-01 9.8971866840782885e-01  0.0000000000000000e+00 3.0141212819075164e-01 9.8417565018666398e-01  0.0000000000000000e+00 3.1136292998940129e-01 9.7824646722730835e-01  0.0000000000000000e+00 3.3103500318271128e-01 9.6537669370400614e-01  0.0000000000000000e+00 3.4078617795586319e-01 9.5846404938827201e-01  0.0000000000000000e+00 3.5053504742712110e-01 9.5121785858582553e-01  0.0000000000000000e+00 3.6031848382233844e-01 9.4362278227360785e-01  0.0000000000000000e+00 3.7017598586801392e-01 9.3565425700828664e-01  0.0000000000000000e+00 3.8011986980327522e-01 9.2730572740483430e-01  0.0000000000000000e+00 3.9014409768132491e-01 9.1858523767926115e-01  0.0000000000000000e+00 4.0021314403517194e-01 9.0952729323831971e-01  0.0000000000000000e+00 4.1028571947931586e-01 9.0017563638697751e-01  0.0000000000000000e+00 4.2028265916801644e-01 8.9061737559825727e-01  0.0000000000000000e+00 4.3016707558348621e-01 8.8089746796988933e-01  0.0000000000000000e+00 4.3987354593101197e-01 8.7110631151850382e-01  0.0000000000000000e+00 4.4942015947718111e-01 8.6123978778750043e-01  0.0000000000000000e+00 4.5879121226581027e-01 8.5133226521935490e-01  0.0000000000000000e+00 4.6802476160216167e-01 8.4136047176808115e-01  0.0000000000000000e+00 4.7715854471569047e-01 8.3129423937981661e-01  0.0000000000000000e+00 4.8624801521860150e-01 8.2108444160896144e-01  0.0000000000000000e+00 4.9531918549935200e-01 8.1070589123047465e-01  0.0000000000000000e+00 5.0439393495108331e-01 8.0013791959216340e-01  0.0000000000000000e+00 5.1345209150210047e-01 7.8940812987174791e-01  0.0000000000000000e+00 5.2248070068987373e-01 7.7853645397126559e-01  0.0000000000000000e+00 5.3141601395823501e-01 7.6760536713811989e-01  0.0000000000000000e+00 5.4021418641496288e-01 7.5667780994139888e-01  0.0000000000000000e+00 5.4883296810549587e-01 7.4581726651858593e-01  0.0000000000000000e+00 5.5724783711948278e-01 7.3506701343273739e-01  0.0000000000000000e+00 5.6545459942987997e-01 7.2444482814051725e-01  0.0000000000000000e+00 5.7345938721624545e-01 7.1395427345847962e-01  0.0000000000000000e+00 5.8130737793329146e-01 7.0354710656605601e-01  0.0000000000000000e+00 5.8903004480188392e-01 6.9318943196817140e-01  0.0000000000000000e+00 5.9668340024255540e-01 6.8281142413683371e-01  0.0000000000000000e+00 6.0428445961329480e-01 6.7239456126153807e-01  0.0000000000000000e+00 6.1182827242511062e-01 6.6194849910358344e-01  0.0000000000000000e+00 6.1932551457514429e-01 6.5146201534614456e-01  0.0000000000000000e+00 6.2674373963250540e-01 6.4098387495455167e-01  0.0000000000000000e+00 6.3404347250642423e-01 6.3057474749306963e-01  0.0000000000000000e+00 6.4119099893993758e-01 6.2028851990730483e-01  0.0000000000000000e+00 6.4815628087496724e-01 6.1017603320031322e-01  0.0000000000000000e+00 6.5491485753502865e-01 6.0027974143788076e-01  0.0000000000000000e+00 6.6146676866602028e-01 5.9060846269035261e-01  0.0000000000000000e+00 6.6784464874017335e-01 5.8112112862756071e-01  0.0000000000000000e+00 6.7405410492321016e-01 5.7181522484420511e-01  0.0000000000000000e+00 6.8014675646329181e-01 5.6261880612272064e-01  0.0000000000000000e+00 6.8615405019773501e-01 5.5348770483257337e-01  0.0000000000000000e+00 6.9209384405251473e-01 5.4439804309971140e-01  0.0000000000000000e+00 6.9798734571404264e-01 5.3531950785099802e-01  0.0000000000000000e+00 7.0381468980954187e-01 5.2628411431055022e-01  0.0000000000000000e+00 7.0955926636395528e-01 5.1732034461217713e-01  0.0000000000000000e+00 7.1521136926963658e-01 5.0844638781108231e-01  0.0000000000000000e+00 7.2071836375951925e-01 4.9974755962285766e-01  0.0000000000000000e+00 7.2606792522050989e-01 4.9124816328050996e-01  0.0000000000000000e+00 7.3123874735652050e-01 4.8298632426680627e-01  0.0000000000000000e+00 7.3623046752975663e-01 4.7496768711393816e-01  0.0000000000000000e+00 7.4106827891824478e-01 4.6715568280383268e-01  0.0000000000000000e+00 7.4575111873120725e-01 4.5955622197633245e-01  0.0000000000000000e+00 7.5030699156878056e-01 4.5212711692842106e-01  0.0000000000000000e+00 7.5478166943225378e-01 4.4479659677761563e-01  0.0000000000000000e+00 7.5917359071495760e-01 4.3756867427292750e-01  0.0000000000000000e+00 7.6351273255021157e-01 4.3039595991517626e-01  0.0000000000000000e+00 7.6780634165596306e-01 4.2326744519844756e-01  0.0000000000000000e+00 7.7205208633162803e-01 4.1618802636535640e-01  0.0000000000000000e+00 7.7622382854300886e-01 4.0920254090911556e-01  0.0000000000000000e+00 7.8029859077550900e-01 4.0235107917607943e-01  0.0000000000000000e+00 7.8426910947376249e-01 3.9564775947455277e-01  0.0000000000000000e+00 7.8811796200823303e-01 3.8912410287844251e-01  0.0000000000000000e+00 7.9182958538149684e-01 3.8280888165239790e-01  0.0000000000000000e+00 7.9539833720105324e-01 3.7671424202784237e-01  0.0000000000000000e+00 7.9882511797491340e-01 3.7084110025949940e-01  0.0000000000000000e+00 8.0212590941572326e-01 3.6516439782815102e-01  0.0000000000000000e+00 8.0532204110984040e-01 3.5964941971185171e-01  0.0000000000000000e+00 8.0841562576612958e-01 3.5429423963806078e-01  0.0000000000000000e+00 8.1142670623963919e-01 3.4906575920920413e-01  0.0000000000000000e+00 8.1439359653186882e-01 3.4389837811540330e-01  0.0000000000000000e+00 8.1732786509786004e-01 3.3877264068208446e-01  0.0000000000000000e+00 8.2021225284174204e-01 3.3371922418702549e-01  0.0000000000000000e+00 8.2304978466931766e-01 3.2873344799776455e-01  0.0000000000000000e+00 8.2585008802036008e-01 3.2379896400452340e-01  0.0000000000000000e+00 8.2859475073143829e-01 3.1894873930469653e-01  0.0000000000000000e+00 8.3127293546426662e-01 3.1420264050532076e-01  0.0000000000000000e+00 8.3386941297262696e-01 3.0958850524866244e-01  0.0000000000000000e+00 8.3637245859254994e-01 3.0512822221256336e-01  0.0000000000000000e+00 8.3877919588542593e-01 3.0082807803368733e-01  0.0000000000000000e+00 8.4108510329195252e-01 2.9669735976518685e-01  0.0000000000000000e+00 8.4328811076828591e-01 2.9274098425635464e-01  0.0000000000000000e+00 8.4539208011874090e-01 2.8895322673126161e-01  0.0000000000000000e+00 8.4740377628868235e-01 2.8532302894859179e-01  0.0000000000000000e+00 8.4933288887672698e-01 2.8183394330444977e-01  0.0000000000000000e+00 8.5119015813120302e-01 2.7846743387783102e-01  0.0000000000000000e+00 8.5298711858654586e-01 2.7520335259544187e-01  0.0000000000000000e+00 8.5473354805477375e-01 2.7202456504388750e-01  0.0000000000000000e+00 8.5643813646919686e-01 2.6891575647172816e-01  0.0000000000000000e+00 8.5810830409107752e-01 2.6586378920312853e-01  0.0000000000000000e+00 8.5974796335178016e-01 2.6286182097349858e-01  0.0000000000000000e+00 8.6136038597371567e-01 2.5990410937097613e-01  0.0000000000000000e+00 8.6294462583907827e-01 2.5699259482690573e-01  0.0000000000000000e+00 8.6449869899086940e-01 2.5413113381404845e-01  0.0000000000000000e+00 8.6601945093756660e-01 2.5132574449549788e-01  0.0000000000000000e+00 8.6750086023129436e-01 2.4858778788861430e-01  0.0000000000000000e+00 8.6893439012354479e-01 2.4593338227475911e-01  0.0000000000000000e+00 8.7032408150051355e-01 2.4335536455837173e-01  0.0000000000000000e+00 8.7166786155737808e-01 2.4085794585374862e-01  0.0000000000000000e+00 8.7295031433667114e-01 2.3847011835782311e-01  0.0000000000000000e+00 8.7417267067812454e-01 2.3619007643659495e-01  0.0000000000000000e+00 8.7532614667616793e-01 2.3403467700079628e-01  0.0000000000000000e+00 8.7642877271412056e-01 2.3197084587212641e-01  0.0000000000000000e+00 8.7749977741073237e-01 2.2996317019663859e-01  0.0000000000000000e+00 8.7845034492624485e-01 2.2817774098825797e-01  0.0000000000000000e+00 8.7937173589962314e-01 2.2644481998577770e-01  0.0000000000000000e+00 8.8023771907876469e-01 2.2481372962672944e-01  0.0000000000000000e+00 8.8107180091586024e-01 2.2324071840415863e-01  0.0000000000000000e+00 8.8186629960475693e-01 2.2174047543329137e-01  0.0000000000000000e+00 8.8259567897342139e-01 2.2036121507855702e-01  0.0000000000000000e+00 8.8329315736792058e-01 2.1904081009376272e-01  0.0000000000000000e+00 8.8396094211772036e-01 2.1777529782126781e-01  0.0000000000000000e+00 8.8458940101424033e-01 2.1658301801090149e-01  0.0000000000000000e+00 8.8518524783962604e-01 2.1545147380575302e-01  0.0000000000000000e+00 8.8575415841670402e-01 2.1437009771447726e-01  0.0000000000000000e+00 8.8628933660716336e-01 2.1335190609848828e-01  0.0000000000000000e+00 8.8680145751615325e-01 2.1237681149085405e-01  0.0000000000000000e+00 8.8729522619415779e-01 2.1143604600058613e-01  0.0000000000000000e+00 8.8773732614081502e-01 2.1059278700519882e-01  0.0000000000000000e+00 8.8818836185212724e-01 2.0973229078744249e-01  0.0000000000000000e+00 8.8856848052946868e-01 2.0900611939232497e-01  0.0000000000000000e+00 8.8895430728981195e-01 2.0826897758328716e-01  0.0000000000000000e+00 8.8931001877340810e-01 2.0758891951374372e-01  0.0000000000000000e+00 8.8964370110234314e-01 2.0695067207522547e-01  0.0000000000000000e+00 8.8994155694751531e-01 2.0638055956192528e-01  0.0000000000000000e+00 8.9023731127767380e-01 2.0581447821175503e-01  0.0000000000000000e+00 8.9044790952629116e-01 2.0541055684555476e-01  0.0000000000000000e+00 8.9067616900716495e-01 2.0497320568465613e-01  0.0000000000000000e+00 8.9086918077880473e-01 2.0460315666238732e-01  0.0000000000000000e+00 8.9117816781979176e-01 2.0401054342420252e-01  0.0000000000000000e+00 8.9129741916219918e-01 2.0378181381860871e-01  0.0000000000000000e+00 8.9138641595429258e-01 2.0361105952800415e-01  0.0000000000000000e+00 8.9143830802437940e-01 2.0351136784817919e-01  0.0000000000000000e+00 8.9145555203512306e-01 2.0347806319717035e-01  0.0000000000000000e+00 8.9147996163131837e-01 2.0343142680146487e-01  0.0000000000000000e+00 8.9144174778518304e-01 2.0350454000623402e-01  0.0000000000000000e+00 8.9141311492506048e-01 2.0355972203174866e-01  0.0000000000000000e+00 8.9132848332775938e-01 2.0372196101106702e-01  0.0000000000000000e+00 8.9122821907244687e-01 2.0391430000639596e-01  0.0000000000000000e+00 8.9110441937853180e-01 2.0415176990795597e-01  0.0000000000000000e+00 8.9095303244690149e-01 2.0444207826152749e-01  0.0000000000000000e+00 8.9077524472832281e-01 2.0478290120918990e-01  0.0000000000000000e+00 8.9058040070974576e-01 2.0515641087598716e-01  0.0000000000000000e+00 8.9036515492510437e-01 2.0556893191858569e-01  0.0000000000000000e+00 8.9011623426902686e-01 2.0604564845691886e-01  0.0000000000000000e+00 8.8985274343964071e-01 2.0655016987856745e-01  0.0000000000000000e+00 8.8955924851082235e-01 2.0711178586804002e-01  0.0000000000000000e+00 8.8923039226973488e-01 2.0774059629026712e-01  0.0000000000000000e+00 8.8890592557176318e-01 2.0836100059758195e-01  0.0000000000