<?xml version="1.0"?>
<VTKFile type="UnstructuredGrid"  version="0.1"  >
<UnstructuredGrid>
<Piece  NumberOfPoints="25605" NumberOfCells="50684">
<Points>
<DataArray  type="Float64"  NumberOfComponents="3"  format="ascii">500 250 0  0 250 0  250 500 0  250 0 0  252.9976310880008 499.9820277697183 0  255.994831180465 499.9281136629446 0  258.9911693467 499.8382654314166 0  261.9862147844171 499.7124959931758 0  264.9795368730259 499.550823430959 0  267.9707052380909 499.3532709896657 0  270.9592898147818 499.1198670729815 0  273.944860911003 498.850645239173 0  276.9269892620302 498.5456441969613 0  279.9052461102784 498.204907798141 0  282.879203246639 497.8284850332306 0  285.8484330760252 497.4164300243493 0  288.812508703066 496.9688020138868 0  291.7710039592635 496.4856653605544 0  294.7234934645729 495.9670895309458 0  297.6695527219374 495.4131490839284 0  300.6087581526373 494.8239236640241 0  303.5406871632312 494.1994979890193 0  306.4649182085955 493.5399618372653 0  309.3810308492501 492.8454100354388 0  312.2886058121011 492.1159424449053 0  315.1872250543244 491.3516639464432 0  318.0764718164482 490.552684426976 0  320.9559306911491 489.7191187614222 0  323.8251876776197 488.8510867975364 0  326.6838302398962 487.9487133391117 0  329.5314473625203 487.0121281293906 0  332.3676296259557 486.0414658270902 0  335.1919692490408 485.0368659922747 0  338.0040601519906 483.9984730650284 0  340.8034980252745 482.926436340691 0  343.5898803648273 481.8209099570125 0  346.3628065522297 480.6820528636277 0  349.1218779058009 479.5100288014175 0  351.866697726272 478.3050062840155 0  354.5968713702315 477.0671585667096 0  357.3120063039883 475.7966636224122 0  360.0117121560444 474.4937041177227 0  362.6956007624657 473.158467392091 0  365.3632862410136 471.7911454221605 0  368.0143850392318 470.39193479756 0  370.6485159774368 468.9610366993228 0  373.2653003309281 467.4986568563726 0  375.8643618621848 466.0050055277077 0  378.4453268904447 464.4802974634425 0  381.0078243277097 462.9247518841339 0  383.5514857466806 461.3385924407896 0  386.0759454147861 459.7220471945478 0  388.5808403686633 458.0753485704519 0  391.0658104727646 456.398733318938 0  393.5304984398443 454.6924425024281 0  395.9745499014433 452.9567214483695 0  398.3976134594079 451.1918197133078 0  400.7993407313268 449.3979910505549 0  403.1793863983767 447.5754933756127 0  405.5374082633365 445.7245887228382 0  407.8730672875487 443.8455432173283 0  410.1860276678057 441.9386270139729 0  412.4759568502628 440.0041142859584 0  414.7425255888164 438.0422831775295 0  416.9854079982472 436.0534157591817 0  419.2042816111551 434.0377979776246 0  421.3988273934515 431.9957196423856 0  423.5687298230711 429.9274743545459 0  425.7136769203488 427.833359477718 0  427.8333602660664 425.7136761224903 0  429.9274751166117 423.5687290330868 0  431.9957203865596 421.3988266032683 0  434.0377986976932 419.2042808279605 0  436.0534164531565 416.9854072250276 0  438.0422838486247 414.7425248228072 0  440.0041149354581 412.4759560907189 0  441.9386276454979 410.1860269110977 0  443.8455438341414 407.8730665301906 0  445.7245893245478 405.5374075061595 0  447.5754939498422 403.1793856577179 0  449.3979916037435 400.7993399998601 0  451.1918202566634 398.3976127227471 0  452.9567219786559 395.9745491641559 0  454.6924430171686 393.53049770576 0  456.3987338202434 391.0658097392857 0  458.0753490553683 388.5808396405746 0  459.7220476673142 386.0759446861523 0  461.3385928978555 383.5514850233965 0  462.924752323721 381.0078236132563 0  464.4802978831972 378.4453261895309 0  466.005005928237 375.8643611748071 0  467.4986572464557 373.2652996426359 0  468.9610370690891 370.64851530636 0  470.3919351512159 368.0143843787793 0  471.7911457549822 365.363285601149 0  473.1584677051019 362.6956001426453 0  474.4937044170927 360.0117115451396 0  475.7966639080153 357.3120057030471 0  477.0671588375024 354.5968707823731 0  478.3050065468899 351.8666971371142 0  479.5100290514928 349.1218773267684 0  480.68205310082 346.3628059844174 0  481.8209101826405 343.5898798059497 0  482.926436550004 340.8034974883511 0  483.9984732613996 338.0040596298491 0  485.0368661774559 335.1919687381426 0  486.0414660017697 332.3676291253755 0  487.0121282892932 329.5314468859938 0  487.9487134870012 326.6838297809975 0  488.8510869337421 323.825187236945 0  489.7191188882317 320.9559302627332 0  490.5526845449373 318.0764713996244 0  491.3516640573307 315.1872246437704 0  492.1159425458163 312.2886054198597 0  492.8454101279934 309.3810304707378 0  493.5399619220304 306.4649178429931 0  494.1994980644915 303.5406868190015 0  494.8239237308971 300.6087578291331 0  495.4131491423161 297.6695524213444 0  495.9670895813101 294.7234931875826 0  496.4856654030534 291.7710037084818 0  496.9688020494549 288.8125084767419 0  497.416430053242 285.8484328766153 0  497.8284850586459 282.8792030550702 0  498.2049078189591 279.9052459374942 0  498.5456442137286 276.9269891072627 0  498.850645253019 273.9448607671062 0  499.1198670835989 270.9592896885852 0  499.3532709967772 267.9707051394148 0  499.5508234355897 264.9795367958812 0  499.7124959959075 261.9862147275054 0  499.8382654331632 258.9911692981657 0  499.928113663985 255.99483113709 0  499.9820277699785 252.9976310663071 0  499.9820277697257 247.0023689126091 0  499.9281136630343 244.0051688232745 0  499.8382654314717 241.0088306548307 0  499.7124959931211 238.0137852144455 0  499.5508234310553 235.0204631285785 0  499.3532709900699 232.0292947675166 0  499.119867073792 229.0407101948513 0  498.8506452406773 226.0551391046306 0  498.5456441987692 223.0730107546571 0  498.2049078002218 220.0947539069917 0  497.8284850356648 217.120796771709 0  497.4164300267099 214.151566940267 0  496.968802017216 211.187491318118 0  496.4856653659872 208.2289960727951 0  495.9670895372035 205.2765065698432 0  495.4131490907147 202.330447313 0  494.8239236713522 199.3912418828135 0  494.1994979969027 196.4593128727251 0  493.5399618460726 193.5350818293917 0  492.8454100458835 190.6189691934644 0  492.1159424557956 187.7113942302294 0  491.3516639574156 184.8127749862999 0  490.5526844387521 181.923528225163 0  489.7191187738694 179.0440693509028 0  488.851086810667 176.1748123648628 0  487.948713352938 173.3161698030064 0  487.0121281439243 170.4685526807917 0  486.0414658415049 167.6323704153526 0  485.0368660060558 164.8080307889799 0  483.9984730779887 161.9959398824702 0  482.9264363544502 159.1965020100202 0  481.8209099702043 156.4101196678486 0  480.6820528745703 153.6371934739656 0  479.5100288124721 150.8781221197951 0  478.3050062927852 148.1333022933829 0  477.0671585723666 145.403128642049 0  475.796663627405 142.687993706517 0  474.4937041236649 139.9882878560814 0  473.1584673984938 137.3043992502131 0  471.7911454319914 134.6367137778867 0  470.3919348096422 131.9856149833316 0  468.9610367113798 129.3514840444451 0  467.49865687022 126.7346996935054 0  466.0050055427385 124.1356381636107 0  464.4802974781252 121.5546731340727 0  462.9247519005733 118.992175699009 0  461.3385924615702 116.4485142862037 0  459.722047215144 113.924054616957 0  458.0753485880027 111.4191596576888 0  456.3987333337139 108.9341895488548 0  454.692442514023 106.4695015766915 0  452.95672145825 104.0254501122942 0  451.1918197247282 101.6023865560754 0  449.3979910627008 99.20065928473332 0  447.5754933882043 96.82061361786421 0  445.7245887341124 94.46259175085058 0  443.8455432269008 92.12693272420489 0  441.9386270210269 89.81397234064673 0  440.0041142971544 87.52404316283014 0  438.0422831897421 85.25747442512349 0  436.0534157701649 83.01459201399018 0  434.0377979907771 80.79571840315057 0  431.9957196541004 78.60117261898753 0  429.9274743620823 76.43127018474144 0  427.8333594859367 74.28632308796901 0  425.7136761283247 72.16663973969838 0  423.5687290359737 70.07252488617331 0  421.3988265987173 68.00427960915448 0  419.2042808240311 65.962201298694 0  416.9854072196475 63.94658354201471 0  414.742524818212 61.95771614734943 0  412.4759560828471 59.99588505781063 0  410.1860269003736 58.06137234555209 0  407.8730665183855 56.15445615624427 0  405.5374074948106 54.27541066643354 0  403.1793856410161 52.424506037209 0  400.7993399855741 50.60200838545225 0  398.3976127114923 48.80817973503514 0  395.9745491514178 47.04327801218227 0  393.5304976958927 45.30755697591243 0  391.0658097308475 43.60126617398947 0  388.5808396359472 41.92465094154986 0  386.0759446832285 40.27795233078868 0  383.5514850239504 38.66140710249451 0  381.007823619977 37.07524768041412 0  378.4453262000283 35.51970212308933 0  375.8643611921311 33.99499408185753 0  373.2652996617874 32.50134276439832 0  370.6485153256615 31.03896294154612 0  368.0143843882092 29.60806485383361 0  365.3632855907917 28.2088542396306 0  362.6956001322776 26.84153228966238 0  360.0117115354126 25.50629557814059 0  357.3120057003284 24.20333609069269 0  354.596870775138 22.93284115916481 0  351.8666971306181 21.69499345021163 0  349.121877320111 20.48997094563194 0  346.3628059771881 19.31794689616012 0  343.5898798100648 18.17908981902079 0  340.8034974914794 17.07356345121562 0  338.0040596332272 16.00152673987083 0  335.1919687416658 14.9631338238211 0  332.3676291322006 13.95853400061199 0  329.5314468917599 12.98787171264172 0  326.6838297822748 12.05128651341042 0  323.8251872378164 11.14891306652726 0  320.9559302656854 10.28088111264219 0  318.076471404611 9.447315456473888 0  315.1872246503818 8.648335944454999 0  312.2886054290304 7.88405745654299 0  309.3810304838133 7.154589875203868 0  306.4649178487239 6.460038079298243 0  303.5406868253978 5.800501936910877 0  300.6087578339258 5.176076270093546 0  297.669552426172 4.586850858621602 0  294.7234931936628 4.0329104197954 0  291.7710037123022 3.514334597594029 0  288.8125084726372 3.031197949900047 0  285.8484328697872 2.58356994576863 0  282.8792030484304 2.171514940473202 0  279.905245932244 1.795092180408318 0  276.9269891008954 1.454
[...]
<PointData  Vectors="f_12"> 
<DataArray  type="Float64"  Name="f_12"  NumberOfComponents="3" format="ascii">0.0000000000000000e+00 3.3139009836849609e-01 9.6512973533631086e-01  0.0000000000000000e+00 6.2068107127723493e-01 6.4956159642361200e-01  0.0000000000000000e+00 1.5286477290368911e-02 2.7317916742306908e-01  0.0000000000000000e+00 8.9215149425244789e-01 2.0213972384748174e-01  0.0000000000000000e+00 1.5284794617878265e-02 2.7205451572664024e-01  0.0000000000000000e+00 1.5283464810001092e-02 2.7105827711111619e-01  0.0000000000000000e+00 1.5282473147750910e-02 2.7022662395991948e-01  0.0000000000000000e+00 1.5281776240533724e-02 2.6955853887324971e-01  0.0000000000000000e+00 1.5281279299454364e-02 2.6903992647720315e-01  0.0000000000000000e+00 1.5280938852930670e-02 2.6866110384758174e-01  0.0000000000000000e+00 1.5280735490221390e-02 2.6842931783689677e-01  0.0000000000000000e+00 1.5280645694118277e-02 2.6833786405234761e-01  0.0000000000000000e+00 1.5280660930470915e-02 2.6838699240564678e-01  0.0000000000000000e+00 1.5280789628407381e-02 2.6857859667193879e-01  0.0000000000000000e+00 1.5281040771270458e-02 2.6890746191807335e-01  0.0000000000000000e+00 1.5281457154118725e-02 2.6939259871654625e-01  0.0000000000000000e+00 1.5282057739200133e-02 2.7001302249272324e-01  0.0000000000000000e+00 1.5282874542407465e-02 2.7076862237738220e-01  0.0000000000000000e+00 1.5283988322585127e-02 2.7167434505492916e-01  0.0000000000000000e+00 1.5285461243986099e-02 2.7272479783000114e-01  0.0000000000000000e+00 1.5287360704362978e-02 2.7392180324770676e-01  0.0000000000000000e+00 1.5289773149870645e-02 2.7525718375887875e-01  0.0000000000000000e+00 1.5292834088580334e-02 2.7673306927284214e-01  0.0000000000000000e+00 1.5296617357772333e-02 2.7837864868178430e-01  0.0000000000000000e+00 1.5301305398756499e-02 2.8017414392804574e-01  0.0000000000000000e+00 1.5306952042081736e-02 2.8209887021906360e-01  0.0000000000000000e+00 1.5313680417882603e-02 2.8417047100802711e-01  0.0000000000000000e+00 1.5321708347739361e-02 2.8639581826483640e-01  0.0000000000000000e+00 1.5331120081191411e-02 2.8876227758296419e-01  0.0000000000000000e+00 1.5342097078354768e-02 2.9126374702021818e-01  0.0000000000000000e+00 1.5354864802739954e-02 2.9389757806680428e-01  0.0000000000000000e+00 1.5369246480120571e-02 2.9665716244601292e-01  0.0000000000000000e+00 1.5385612024146192e-02 2.9953167469264669e-01  0.0000000000000000e+00 1.5404064220725123e-02 3.0251718376019926e-01  0.0000000000000000e+00 1.5424728274625205e-02 3.0562331469435683e-01  0.0000000000000000e+00 1.5447631906989081e-02 3.0881893696259233e-01  0.0000000000000000e+00 1.5472709422865914e-02 3.1209262034405399e-01  0.0000000000000000e+00 1.5500190178170798e-02 3.1544582062263721e-01  0.0000000000000000e+00 1.5530054169066786e-02 3.1887395207515601e-01  0.0000000000000000e+00 1.5562431120938417e-02 3.2237972105254886e-01  0.0000000000000000e+00 1.5597079650765955e-02 3.2591821508206109e-01  0.0000000000000000e+00 1.5634902864429354e-02 3.2957043641554717e-01  0.0000000000000000e+00 1.5675141996155207e-02 3.3325345104637288e-01  0.0000000000000000e+00 1.5718113473694829e-02 3.3700751184732403e-01  0.0000000000000000e+00 1.5764124006882027e-02 3.4083385042689585e-01  0.0000000000000000e+00 1.5813419023371446e-02 3.4474124611590007e-01  0.0000000000000000e+00 1.5866170867792753e-02 3.4874549413017264e-01  0.0000000000000000e+00 1.5922849035701233e-02 3.5285933472261027e-01  0.0000000000000000e+00 1.5983935877626969e-02 3.5710340591979434e-01  0.0000000000000000e+00 1.6049776751192547e-02 3.6150408676787193e-01  0.0000000000000000e+00 1.6121404593376965e-02 3.6607896342690222e-01  0.0000000000000000e+00 1.6199242024595679e-02 3.7086398334445708e-01  0.0000000000000000e+00 1.6284400177964977e-02 3.7588407426619891e-01  0.0000000000000000e+00 1.6377865141691761e-02 3.8117486660091260e-01  0.0000000000000000e+00 1.6480264362603355e-02 3.8674550050511963e-01  0.0000000000000000e+00 1.6593668211784381e-02 3.9264286405219301e-01  0.0000000000000000e+00 1.6718528477237073e-02 3.9889423203462193e-01  0.0000000000000000e+00 1.6856468999305183e-02 4.0549635704341702e-01  0.0000000000000000e+00 1.7008457907401301e-02 4.1245315088548740e-01  0.0000000000000000e+00 1.7176061464664941e-02 4.1978903669700024e-01  0.0000000000000000e+00 1.7360231573190117e-02 4.2749612230266704e-01  0.0000000000000000e+00 1.7561960052589386e-02 4.3553935978028369e-01  0.0000000000000000e+00 1.7781575731154874e-02 4.4388520599825565e-01  0.0000000000000000e+00 1.8019525036172362e-02 4.5249272811199853e-01  0.0000000000000000e+00 1.8276301707240903e-02 4.6133533816761707e-01  0.0000000000000000e+00 1.8550043874206591e-02 4.7032513452954999e-01  0.0000000000000000e+00 1.8844405239649562e-02 4.7948309555432961e-01  0.0000000000000000e+00 1.9155627249685586e-02 4.8871717045519225e-01  0.0000000000000000e+00 1.9484988126324883e-02 4.9801199381116890e-01  0.0000000000000000e+00 1.9834139586660363e-02 5.0738373783389656e-01  0.0000000000000000e+00 2.0203576916012586e-02 5.1683579472406416e-01  0.0000000000000000e+00 2.0594226591702697e-02 5.2635024113255446e-01  0.0000000000000000e+00 2.1009426698610806e-02 5.3597522110766749e-01  0.0000000000000000e+00 2.1453550152219843e-02 5.4578398286144436e-01  0.0000000000000000e+00 2.1931046679501097e-02 5.5582586508172116e-01  0.0000000000000000e+00 2.2447904070712683e-02 5.6614871866011973e-01  0.0000000000000000e+00 2.3009947059617154e-02 5.7682179688046054e-01  0.0000000000000000e+00 2.3625896881946950e-02 5.8790030917749370e-01  0.0000000000000000e+00 2.4302282453830284e-02 5.9941887001287186e-01  0.0000000000000000e+00 2.5047288225777006e-02 6.1139611201988187e-01  0.0000000000000000e+00 2.5869277281767866e-02 6.2382380209004418e-01  0.0000000000000000e+00 2.6775392601864751e-02 6.3669031335428938e-01  0.0000000000000000e+00 2.7770249826969035e-02 6.4991564253414802e-01  0.0000000000000000e+00 2.8858918136998490e-02 6.6342313152331112e-01  0.0000000000000000e+00 3.0044619125527011e-02 6.7711921294696187e-01  0.0000000000000000e+00 3.1326770781988970e-02 6.9090471224734651e-01  0.0000000000000000e+00 3.2707191191342730e-02 7.0466884510870953e-01  0.0000000000000000e+00 3.4189000661881123e-02 7.1836951344118205e-01  0.0000000000000000e+00 3.5770852156521100e-02 7.3192971982251331e-01  0.0000000000000000e+00 3.7458381955184639e-02 7.4532018016508550e-01  0.0000000000000000e+00 3.9259463109122511e-02 7.5855532905077516e-01  0.0000000000000000e+00 4.1185413238698412e-02 7.7165433395402061e-01  0.0000000000000000e+00 4.3255184054022740e-02 7.8466723208495204e-01  0.0000000000000000e+00 4.5490887222458636e-02 7.9765831255880315e-01  0.0000000000000000e+00 4.7911566705958371e-02 8.1062587908900885e-01  0.0000000000000000e+00 5.0547914247677753e-02 8.2363062142283949e-01  0.0000000000000000e+00 5.3417461287312097e-02 8.3663625430216360e-01  0.0000000000000000e+00 5.6547381136271509e-02 8.4962516724033343e-01  0.0000000000000000e+00 5.9945610856247507e-02 8.6251992525020282e-01  0.0000000000000000e+00 6.3620711811578204e-02 8.7522578658601391e-01  0.0000000000000000e+00 6.7562731555439404e-02 8.8762054968499171e-01  0.0000000000000000e+00 7.1770174554212654e-02 8.9962341690345471e-01  0.0000000000000000e+00 7.6208420479680433e-02 9.1110096946294250e-01  0.0000000000000000e+00 8.0868576448094157e-02 9.2200391295540784e-01  0.0000000000000000e+00 8.5732827749415805e-02 9.3228870867052005e-01  0.0000000000000000e+00 9.0792259974683209e-02 9.4193818476266389e-01  0.0000000000000000e+00 9.6045185801311717e-02 9.5096490531361455e-01  0.0000000000000000e+00 1.0150730954787109e-01 9.5939931665517975e-01  0.0000000000000000e+00 1.0720692241427474e-01 9.6728081557560674e-01  0.0000000000000000e+00 1.1317159211428041e-01 9.7463226750492271e-01  0.0000000000000000e+00 1.1943124861380527e-01 9.8146291630223892e-01  0.0000000000000000e+00 1.2602133449907296e-01 9.8777843037566837e-01  0.0000000000000000e+00 1.3294742555588829e-01 9.9354598787868842e-01  0.0000000000000000e+00 1.4020479266778979e-01 9.9872543494889243e-01  0.0000000000000000e+00 1.4778142571419015e-01 1.0032816332057026e+00  0.0000000000000000e+00 1.5562984314536424e-01 1.0071702590078468e+00  0.0000000000000000e+00 1.6370682573083042e-01 1.0103664511346155e+00  0.0000000000000000e+00 1.7195839318957049e-01 1.0128659554097164e+00  0.0000000000000000e+00 1.8032783340589148e-01 1.0146749716500150e+00  0.0000000000000000e+00 1.8880971326246729e-01 1.0158166669451734e+00  0.0000000000000000e+00 1.9735581711506928e-01 1.0163342511606284e+00  0.0000000000000000e+00 2.0599705323447426e-01 1.0162427208676887e+00  0.0000000000000000e+00 2.1475782035237309e-01 1.0155716755213564e+00  0.0000000000000000e+00 2.2367767399439309e-01 1.0143256144817523e+00  0.0000000000000000e+00 2.3277890640463386e-01 1.0125164131723607e+00  0.0000000000000000e+00 2.4210527986508273e-01 1.0101267565025822e+00  0.0000000000000000e+00 2.5165841149307883e-01 1.0071545489332352e+00  0.0000000000000000e+00 2.6141670301778402e-01 1.0036018528702777e+00  0.0000000000000000e+00 2.7134776905050678e-01 9.9948211855992886e-01  0.0000000000000000e+00 2.8138635277753482e-01 9.9482845443073264e-01  0.0000000000000000e+00 2.9147594383964925e-01 9.8968079588520663e-01  0.0000000000000000e+00 3.0155189978952501e-01 9.8409365422527828e-01  0.0000000000000000e+00 3.1157381735231171e-01 9.7811506805466575e-01  0.0000000000000000e+00 3.2151912670856120e-01 9.7178552348570479e-01  0.0000000000000000e+00 3.4121501631597040e-01 9.5815071398946028e-01  0.0000000000000000e+00 3.5103350324871008e-01 9.5083770204858797e-01  0.0000000000000000e+00 3.6089428305283322e-01 9.4316467884927324e-01  0.0000000000000000e+00 3.7082370509817908e-01 9.3511869921091495e-01  0.0000000000000000e+00 3.8084040699499183e-01 9.2668801185678262e-01  0.0000000000000000e+00 3.9093004839562134e-01 9.1788771543824987e-01  0.0000000000000000e+00 4.0105877592603373e-01 9.0875238151814119e-01  0.0000000000000000e+00 4.1117163579622773e-01 8.9933923686162065e-01  0.0000000000000000e+00 4.2122004136850216e-01 8.8970495788776804e-01  0.0000000000000000e+00 4.3112695802405959e-01 8.7994173097883632e-01  0.0000000000000000e+00 4.4087935408944212e-01 8.7007552931212895e-01  0.0000000000000000e+00 4.5043458211087767e-01 8.6017654162815915e-01  0.0000000000000000e+00 4.5983811266596042e-01 8.5021120997174227e-01  0.0000000000000000e+00 4.6909999015675152e-01 8.4018465952631638e-01  0.0000000000000000e+00 4.7827013923668926e-01 8.3005623209165558e-01  0.0000000000000000e+00 4.8738744804757400e-01 8.1979003079780177e-01  0.0000000000000000e+00 4.9649507037996071e-01 8.0934630251962103e-01  0.0000000000000000e+00 5.0559642092962997e-01 7.9872346700165386e-01  0.0000000000000000e+00 5.1468644419297827e-01 7.8793149981018995e-01  0.0000000000000000e+00 5.2372077254808469e-01 7.7702857164830019e-01  0.0000000000000000e+00 5.3267038581125781e-01 7.6605663178283745e-01  0.0000000000000000e+00 5.4146914127191881e-01 7.5510538285416495e-01  0.0000000000000000e+00 5.5007870749460885e-01 7.4423437115417157e-01  0.0000000000000000e+00 5.5847761611414826e-01 7.3348337370297600e-01  0.0000000000000000e+00 5.6666567937012746e-01 7.2286539105349634e-01  0.0000000000000000e+00 5.7466400289999164e-01 7.1236459816479603e-01  0.0000000000000000e+00 5.8249798894285332e-01 7.0195732382903153e-01  0.0000000000000000e+00 5.9022126127375851e-01 6.9158088479413149e-01  0.0000000000000000e+00 5.9786173519446928e-01 6.8120335191434256e-01  0.0000000000000000e+00 6.0546070404544561e-01 6.7077214311955591e-01  0.0000000000000000e+00 6.1301654763748126e-01 6.6029302257685707e-01  0.0000000000000000e+00 6.2050233108045838e-01 6.4980612758468237e-01  0.0000000000000000e+00 6.2790715218884974e-01 6.3933105740387508e-01  0.0000000000000000e+00 6.3518859520707882e-01 6.2893261767995889e-01  0.0000000000000000e+00 6.4230619188450844e-01 6.1867507310999548e-01  0.0000000000000000e+00 6.4923502885083273e-01 6.0860147419328592e-01  0.0000000000000000e+00 6.5596116140775174e-01 5.9874043379732045e-01  0.0000000000000000e+00 6.6248249861000585e-01 5.8910203037580888e-01  0.0000000000000000e+00 6.6881719925841898e-01 5.7966754608806370e-01  0.0000000000000000e+00 6.7501110208122705e-01 5.7037464148624462e-01  0.0000000000000000e+00 6.8107702340004483e-01 5.6120852697199397e-01  0.0000000000000000e+00 6.8706262086965186e-01 5.5210117815297455e-01  0.0000000000000000e+00 6.9298881522257894e-01 5.4302297108907893e-01  0.0000000000000000e+00 6.9885739427787053e-01 5.3397372933217313e-01  0.0000000000000000e+00 7.0467202541348195e-01 5.2494978014067784e-01  0.0000000000000000e+00 7.1039885580217210e-01 5.1600540607348422e-01  0.0000000000000000e+00 7.1601142403229356e-01 5.0718531894258501e-01  0.0000000000000000e+00 7.2149726663451952e-01 4.9851292185327084e-01  0.0000000000000000e+00 7.2681066525527793e-01 4.9006394794525082e-01  0.0000000000000000e+00 7.3194954584357719e-01 4.8184693188559580e-01  0.0000000000000000e+00 7.3690773927882425e-01 4.7387612003850083e-01  0.0000000000000000e+00 7.4169880555024692e-01 4.6613446201137787e-01  0.0000000000000000e+00 7.4635887498915054e-01 4.5856694834916734e-01  0.0000000000000000e+00 7.5089407218324289e-01 4.5116706311281118e-01  0.0000000000000000e+00 7.5533344064381980e-01 4.4388988094278714e-01  0.0000000000000000e+00 7.5971803806862792e-01 4.3667022654910853e-01  0.0000000000000000e+00 7.6403783603519504e-01 4.2952552003795580e-01  0.0000000000000000e+00 7.6831113003832952e-01 4.2242708284200309e-01  0.0000000000000000e+00 7.7253362401953163e-01 4.1538293401499293e-01  0.0000000000000000e+00 7.7669317338815880e-01 4.0841449269680352e-01  0.0000000000000000e+00 7.8075807204992898e-01 4.0157642524171755e-01  0.0000000000000000e+00 7.8470398356091997e-01 3.9491165363359249e-01  0.0000000000000000e+00 7.8852627967743516e-01 3.8843024675326032e-01  0.0000000000000000e+00 7.9221402616301173e-01 3.8215310153480631e-01  0.0000000000000000e+00 7.9576067093206304e-01 3.7609386461694438e-01  0.0000000000000000e+00 7.9916962307270911e-01 3.7024918047078714e-01  0.0000000000000000e+00 8.0244991255350295e-01 3.6460580826553918e-01  0.0000000000000000e+00 8.0562310098092327e-01 3.5912866249097991e-01  0.0000000000000000e+00 8.0871356379745674e-01 3.5377726130732368e-01  0.0000000000000000e+00 8.1172331705203604e-01 3.4854943982503866e-01  0.0000000000000000e+00 8.1466948973822151e-01 3.4341667143182214e-01  0.0000000000000000e+00 8.1758507868753305e-01 3.3832211022622638e-01  0.0000000000000000e+00 8.2047530890760734e-01 3.3325710821785831e-01  0.0000000000000000e+00 8.2331666056050101e-01 3.2826329413593719e-01  0.0000000000000000e+00 8.2610607202836794e-01 3.2334664563617477e-01  0.0000000000000000e+00 8.2884823983352307e-01 3.1849951850309566e-01  0.0000000000000000e+00 8.3152234201638020e-01 3.1375937122509284e-01  0.0000000000000000e+00 8.3411693188156122e-01 3.0914736568178530e-01  0.0000000000000000e+00 8.3661842153245369e-01 3.0468866070914469e-01  0.0000000000000000e+00 8.3901835702530658e-01 3.0039950268253363e-01  0.0000000000000000e+00 8.4131790307206866e-01 2.9627904721115456e-01  0.0000000000000000e+00 8.4351713616826307e-01 2.9232838514673698e-01  0.0000000000000000e+00 8.4561837242263316e-01 2.8854452662639635e-01  0.0000000000000000e+00 8.4762909239227857e-01 2.8491512283287768e-01  0.0000000000000000e+00 8.4955872603151550e-01 2.8142414936625143e-01  0.0000000000000000e+00 8.5141844294841396e-01 2.7805228794629355e-01  0.0000000000000000e+00 8.5321936359081751e-01 2.7478010840039341e-01  0.0000000000000000e+00 8.5497235553231654e-01 2.7158846829853373e-01  0.0000000000000000e+00 8.5668567560880660e-01 2.6846281551331203e-01  0.0000000000000000e+00 8.5836585666566945e-01 2.6539160715438603e-01  0.0000000000000000e+00 8.6001774653189156e-01 2.6236627342625918e-01  0.0000000000000000e+00 8.6164251930310232e-01 2.5938489450763630e-01  0.0000000000000000e+00 8.6324075335412975e-01 2.5644660867198293e-01  0.0000000000000000e+00 8.6480910168665059e-01 2.5355775500393701e-01  0.0000000000000000e+00 8.6634362350987115e-01 2.5072580973486819e-01  0.0000000000000000e+00 8.6783976631958704e-01 2.4795941400081761e-01  0.0000000000000000e+00 8.6929080398800185e-01 2.4527130366454830e-01  0.0000000000000000e+00 8.7068833319771499e-01 2.4267744261041135e-01  0.0000000000000000e+00 8.7203651842531782e-01 2.4017047822468193e-01  0.0000000000000000e+00 8.7333416182808388e-01 2.3775306071387067e-01  0.0000000000000000e+00 8.7456745377071288e-01 2.3545130524215191e-01  0.0000000000000000e+00 8.7573878912807968e-01 2.3326125974933770e-01  0.0000000000000000e+00 8.7684115854583711e-01 2.3119652337708868e-01  0.0000000000000000e+00 8.7789320887233491e-01 2.2922279521408731e-01  0.0000000000000000e+00 8.7891453859952107e-01 2.2730388184361294e-01  0.0000000000000000e+00 8.7982111170985999e-01 2.2559727382362424e-01  0.0000000000000000e+00 8.8070100658087513e-01 2.2393877303288109e-01  0.0000000000000000e+00 8.8152970000056996e-01 2.2237457697851815e-01  0.0000000000000000e+00 8.8232991298196228e-01 2.2086228604858185e-01  0.0000000000000000e+00 8.8309452396179300e-01 2.1941553145136403e-01  0.0000000000000000e+00 8.8379916596281727e-01 2.1808039306246130e-01  0.0000000000000000e+00 8.8447549329363206e-01 2.1679752998089127e-01  0.0000000000000000e+00 8.8512541310184767e-01 2.1556351315453398e-01  0.0000000000000000e+00 8.8573945945350119e-01 2.1439638127733085e-01  0.0000000000000000e+00 8.8632382771590001e-01 2.1328457407731211e-01  0.0000000000000000e+00 8.8688365007490277e-01 2.1221851693564012e-01  0.0000000000000000e+00 8.8741202497183047e-01 2.1121143537369172e-01  0.0000000000000000e+00 8.8791895095224549e-01 2.1024447878543406e-01  0.0000000000000000e+00 8.8840867425743186e-01 2.0930972488285388e-01  0.0000000000000000e+00 8.8884868575560838e-01 2.0846893232789920e-01  0.0000000000000000e+00 8.8929753353922902e-01 2.0761104822389920e-01  0.0000000000000000e+00 8.8967726980413064e-01 2.0688428779264056e-01  0.0000000000000000e+00 8.9006236816315065e-01 2.0614718312316846e-01  0.0000000000000000e+00 8.9041775651446742e-01 2.0546648466758757e-01  0.0000000000000000e+00 8.9075121322476125e-01 2.0482747855085970e-01  0.0000000000000000e+00 8.9104910132004755e-01 2.0425623269747264e-01  0.0000000000000000e+00 8.9134450509244023e-01 2.0368975099988465e-01  0.0000000000000000e+00 8.9155565251324387e-01 2.0328400552305079e-01  0.0000000000000000e+00 8.9178365550552530e-01 2.0284630582750110e-01  0.0000000000000000e+00 8.9197646787830331e-01 2.0247592345712587e-01  0.0000000000000000e+00 8.9228474690375392e-01 2.0188351458655751e-01  0.0000000000000000e+00 8.9240346500513734e-01 2.0165536146850790e-01  0.0000000000000000e+00 8.9249190884864993e-01 2.0148533443299427e-01  0.0000000000000000e+00 8.9254331696243627e-01 2.0138637576083834e-01  0.0000000000000000e+00 8.9256012405074725e-01 2.0135384369197537e-01  0.0000000000000000e+00 8.9258366247658849e-01 2.0130879374138655e-01  0.0000000000000000e+00 8.9254492933488649e-01 2.0138304827675485e-01  0.0000000000000000e+00 8.9251529447885902e-01 2.0144026920993427e-01  0.0000000000000000e+00 8.9242996515763551e-01 2.0160416815201437e-01  0.0000000000000000e+00 8.9232879769409468e-01 2.0179862118772687e-01  0.0000000000000000e+00 8.9220397883503400e-01 2.0203851420706401e-01  0.0000000000000000e+00 8.9205147193926404e-01 2.0233153821662395e-01  0.0000000000000000e+00 8.9187245998158116e-01 2.0267537006337857e-01  0.0000000000000000e+00 8.9167613338881857e-01 2.0305244191380972e-01  0.0000000000000000e+00 8.9145920631549780e-01 2.0346897356419241e-01  0.0000000000000000e+00 8.9120865608513555e-01 2.0394971499197292e-01  0.0000000000000000e+00 8.9094325713361100e-01 2.0445883760897468e-01  0.0000000000000000e+00 8.9064790274180694e-01 2.0502505729099169e-01  0.0000000000000000e+00 8.9031745782870197e-01 2.0565806678614168e-01  0.0000000000000000e+00 8.8999090207856379e-01 2.0628359715150046e-01  0.0000000000