<?xml version="1.0"?>
<VTKFile type="UnstructuredGrid"  version="0.1"  >
<UnstructuredGrid>
<Piece  NumberOfPoints="25605" NumberOfCells="50684">
<Points>
<DataArray  type="Float64"  NumberOfComponents="3"  format="ascii">500 250 0  0 250 0  250 500 0  250 0 0  252.9976310880008 499.9820277697183 0  255.994831180465 499.9281136629446 0  258.9911693467 499.8382654314166 0  261.9862147844171 499.7124959931758 0  264.9795368730259 499.550823430959 0  267.9707052380909 499.3532709896657 0  270.9592898147818 499.1198670729815 0  273.944860911003 498.850645239173 0  276.9269892620302 498.5456441969613 0  279.9052461102784 498.204907798141 0  282.879203246639 497.8284850332306 0  285.8484330760252 497.4164300243493 0  288.812508703066 496.9688020138868 0  291.7710039592635 496.4856653605544 0  294.7234934645729 495.9670895309458 0  297.6695527219374 495.4131490839284 0  300.6087581526373 494.8239236640241 0  303.5406871632312 494.1994979890193 0  306.4649182085955 493.5399618372653 0  309.3810308492501 492.8454100354388 0  312.2886058121011 492.1159424449053 0  315.1872250543244 491.3516639464432 0  318.0764718164482 490.552684426976 0  320.9559306911491 489.7191187614222 0  323.8251876776197 488.8510867975364 0  326.6838302398962 487.9487133391117 0  329.5314473625203 487.0121281293906 0  332.3676296259557 486.0414658270902 0  335.1919692490408 485.0368659922747 0  338.0040601519906 483.9984730650284 0  340.8034980252745 482.926436340691 0  343.5898803648273 481.8209099570125 0  346.3628065522297 480.6820528636277 0  349.1218779058009 479.5100288014175 0  351.866697726272 478.3050062840155 0  354.5968713702315 477.0671585667096 0  357.3120063039883 475.7966636224122 0  360.0117121560444 474.4937041177227 0  362.6956007624657 473.158467392091 0  365.3632862410136 471.7911454221605 0  368.0143850392318 470.39193479756 0  370.6485159774368 468.9610366993228 0  373.2653003309281 467.4986568563726 0  375.8643618621848 466.0050055277077 0  378.4453268904447 464.4802974634425 0  381.0078243277097 462.9247518841339 0  383.5514857466806 461.3385924407896 0  386.0759454147861 459.7220471945478 0  388.5808403686633 458.0753485704519 0  391.0658104727646 456.398733318938 0  393.5304984398443 454.6924425024281 0  395.9745499014433 452.9567214483695 0  398.3976134594079 451.1918197133078 0  400.7993407313268 449.3979910505549 0  403.1793863983767 447.5754933756127 0  405.5374082633365 445.7245887228382 0  407.8730672875487 443.8455432173283 0  410.1860276678057 441.9386270139729 0  412.4759568502628 440.0041142859584 0  414.7425255888164 438.0422831775295 0  416.9854079982472 436.0534157591817 0  419.2042816111551 434.0377979776246 0  421.3988273934515 431.9957196423856 0  423.5687298230711 429.9274743545459 0  425.7136769203488 427.833359477718 0  427.8333602660664 425.7136761224903 0  429.9274751166117 423.5687290330868 0  431.9957203865596 421.3988266032683 0  434.0377986976932 419.2042808279605 0  436.0534164531565 416.9854072250276 0  438.0422838486247 414.7425248228072 0  440.0041149354581 412.4759560907189 0  441.9386276454979 410.1860269110977 0  443.8455438341414 407.8730665301906 0  445.7245893245478 405.5374075061595 0  447.5754939498422 403.1793856577179 0  449.3979916037435 400.7993399998601 0  451.1918202566634 398.3976127227471 0  452.9567219786559 395.9745491641559 0  454.6924430171686 393.53049770576 0  456.3987338202434 391.0658097392857 0  458.0753490553683 388.5808396405746 0  459.7220476673142 386.0759446861523 0  461.3385928978555 383.5514850233965 0  462.924752323721 381.0078236132563 0  464.4802978831972 378.4453261895309 0  466.005005928237 375.8643611748071 0  467.4986572464557 373.2652996426359 0  468.9610370690891 370.64851530636 0  470.3919351512159 368.0143843787793 0  471.7911457549822 365.363285601149 0  473.1584677051019 362.6956001426453 0  474.4937044170927 360.0117115451396 0  475.7966639080153 357.3120057030471 0  477.0671588375024 354.5968707823731 0  478.3050065468899 351.8666971371142 0  479.5100290514928 349.1218773267684 0  480.68205310082 346.3628059844174 0  481.8209101826405 343.5898798059497 0  482.926436550004 340.8034974883511 0  483.9984732613996 338.0040596298491 0  485.0368661774559 335.1919687381426 0  486.0414660017697 332.3676291253755 0  487.0121282892932 329.5314468859938 0  487.9487134870012 326.6838297809975 0  488.8510869337421 323.825187236945 0  489.7191188882317 320.9559302627332 0  490.5526845449373 318.0764713996244 0  491.3516640573307 315.1872246437704 0  492.1159425458163 312.2886054198597 0  492.8454101279934 309.3810304707378 0  493.5399619220304 306.4649178429931 0  494.1994980644915 303.5406868190015 0  494.8239237308971 300.6087578291331 0  495.4131491423161 297.6695524213444 0  495.9670895813101 294.7234931875826 0  496.4856654030534 291.7710037084818 0  496.9688020494549 288.8125084767419 0  497.416430053242 285.8484328766153 0  497.8284850586459 282.8792030550702 0  498.2049078189591 279.9052459374942 0  498.5456442137286 276.9269891072627 0  498.850645253019 273.9448607671062 0  499.1198670835989 270.9592896885852 0  499.3532709967772 267.9707051394148 0  499.5508234355897 264.9795367958812 0  499.7124959959075 261.9862147275054 0  499.8382654331632 258.9911692981657 0  499.928113663985 255.99483113709 0  499.9820277699785 252.9976310663071 0  499.9820277697257 247.0023689126091 0  499.9281136630343 244.0051688232745 0  499.8382654314717 241.0088306548307 0  499.7124959931211 238.0137852144455 0  499.5508234310553 235.0204631285785 0  499.3532709900699 232.0292947675166 0  499.119867073792 229.0407101948513 0  498.8506452406773 226.0551391046306 0  498.5456441987692 223.0730107546571 0  498.2049078002218 220.0947539069917 0  497.8284850356648 217.120796771709 0  497.4164300267099 214.151566940267 0  496.968802017216 211.187491318118 0  496.4856653659872 208.2289960727951 0  495.9670895372035 205.2765065698432 0  495.4131490907147 202.330447313 0  494.8239236713522 199.3912418828135 0  494.1994979969027 196.4593128727251 0  493.5399618460726 193.5350818293917 0  492.8454100458835 190.6189691934644 0  492.1159424557956 187.7113942302294 0  491.3516639574156 184.8127749862999 0  490.5526844387521 181.923528225163 0  489.7191187738694 179.0440693509028 0  488.851086810667 176.1748123648628 0  487.948713352938 173.3161698030064 0  487.0121281439243 170.4685526807917 0  486.0414658415049 167.6323704153526 0  485.0368660060558 164.8080307889799 0  483.9984730779887 161.9959398824702 0  482.9264363544502 159.1965020100202 0  481.8209099702043 156.4101196678486 0  480.6820528745703 153.6371934739656 0  479.5100288124721 150.8781221197951 0  478.3050062927852 148.1333022933829 0  477.0671585723666 145.403128642049 0  475.796663627405 142.687993706517 0  474.4937041236649 139.9882878560814 0  473.1584673984938 137.3043992502131 0  471.7911454319914 134.6367137778867 0  470.3919348096422 131.9856149833316 0  468.9610367113798 129.3514840444451 0  467.49865687022 126.7346996935054 0  466.0050055427385 124.1356381636107 0  464.4802974781252 121.5546731340727 0  462.9247519005733 118.992175699009 0  461.3385924615702 116.4485142862037 0  459.722047215144 113.924054616957 0  458.0753485880027 111.4191596576888 0  456.3987333337139 108.9341895488548 0  454.692442514023 106.4695015766915 0  452.95672145825 104.0254501122942 0  451.1918197247282 101.6023865560754 0  449.3979910627008 99.20065928473332 0  447.5754933882043 96.82061361786421 0  445.7245887341124 94.46259175085058 0  443.8455432269008 92.12693272420489 0  441.9386270210269 89.81397234064673 0  440.0041142971544 87.52404316283014 0  438.0422831897421 85.25747442512349 0  436.0534157701649 83.01459201399018 0  434.0377979907771 80.79571840315057 0  431.9957196541004 78.60117261898753 0  429.9274743620823 76.43127018474144 0  427.8333594859367 74.28632308796901 0  425.7136761283247 72.16663973969838 0  423.5687290359737 70.07252488617331 0  421.3988265987173 68.00427960915448 0  419.2042808240311 65.962201298694 0  416.9854072196475 63.94658354201471 0  414.742524818212 61.95771614734943 0  412.4759560828471 59.99588505781063 0  410.1860269003736 58.06137234555209 0  407.8730665183855 56.15445615624427 0  405.5374074948106 54.27541066643354 0  403.1793856410161 52.424506037209 0  400.7993399855741 50.60200838545225 0  398.3976127114923 48.80817973503514 0  395.9745491514178 47.04327801218227 0  393.5304976958927 45.30755697591243 0  391.0658097308475 43.60126617398947 0  388.5808396359472 41.92465094154986 0  386.0759446832285 40.27795233078868 0  383.5514850239504 38.66140710249451 0  381.007823619977 37.07524768041412 0  378.4453262000283 35.51970212308933 0  375.8643611921311 33.99499408185753 0  373.2652996617874 32.50134276439832 0  370.6485153256615 31.03896294154612 0  368.0143843882092 29.60806485383361 0  365.3632855907917 28.2088542396306 0  362.6956001322776 26.84153228966238 0  360.0117115354126 25.50629557814059 0  357.3120057003284 24.20333609069269 0  354.596870775138 22.93284115916481 0  351.8666971306181 21.69499345021163 0  349.121877320111 20.48997094563194 0  346.3628059771881 19.31794689616012 0  343.5898798100648 18.17908981902079 0  340.8034974914794 17.07356345121562 0  338.0040596332272 16.00152673987083 0  335.1919687416658 14.9631338238211 0  332.3676291322006 13.95853400061199 0  329.5314468917599 12.98787171264172 0  326.6838297822748 12.05128651341042 0  323.8251872378164 11.14891306652726 0  320.9559302656854 10.28088111264219 0  318.076471404611 9.447315456473888 0  315.1872246503818 8.648335944454999 0  312.2886054290304 7.88405745654299 0  309.3810304838133 7.154589875203868 0  306.4649178487239 6.460038079298243 0  303.5406868253978 5.800501936910877 0  300.6087578339258 5.176076270093546 0  297.669552426172 4.586850858621602 0  294.7234931936628 4.0329104197954 0  291.7710037123022 3.514334597594029 0  288.8125084726372 3.031197949900047 0  285.8484328697872 2.58356994576863 0  282.8792030484304 2.171514940473202 0  279.905245932244 1.795092180408318 0  276.9269891008954 1.454
[...]
<PointData  Vectors="f_12"> 
<DataArray  type="Float64"  Name="f_12"  NumberOfComponents="3" format="ascii">0.0000000000000000e+00 3.8362629080829141e-01 9.2428104170404235e-01  0.0000000000000000e+00 6.5643520592887139e-01 5.9804972493627728e-01  0.0000000000000000e+00 1.5301942877724727e-02 2.5301305879430847e-01  0.0000000000000000e+00 8.9720706084866386e-01 1.9236639170597103e-01  0.0000000000000000e+00 1.5304371776570029e-02 2.5191384852986715e-01  0.0000000000000000e+00 1.5306707486938522e-02 2.5092543438637538e-01  0.0000000000000000e+00 1.5308763638144771e-02 2.5011300831808936e-01  0.0000000000000000e+00 1.5310514831544931e-02 2.4947337144569959e-01  0.0000000000000000e+00 1.5311891109031662e-02 2.4898245224660048e-01  0.0000000000000000e+00 1.5312911771564726e-02 2.4862302301717165e-01  0.0000000000000000e+00 1.5313515294261235e-02 2.4841142128717131e-01  0.0000000000000000e+00 1.5313717025981378e-02 2.4833438531544033e-01  0.0000000000000000e+00 1.5313497155602184e-02 2.4839387617471304e-01  0.0000000000000000e+00 1.5312862182607400e-02 2.4859348328415395e-01  0.0000000000000000e+00 1.5311859425934422e-02 2.4892211503987505e-01  0.0000000000000000e+00 1.5310422631446292e-02 2.4941580279400899e-01  0.0000000000000000e+00 1.5308695451182987e-02 2.5003577828493839e-01  0.0000000000000000e+00 1.5306701848718809e-02 2.5077933639314265e-01  0.0000000000000000e+00 1.5304448180503916e-02 2.5167500200656956e-01  0.0000000000000000e+00 1.5302050525688079e-02 2.5271365337214202e-01  0.0000000000000000e+00 1.5299561196404974e-02 2.5389542755197142e-01  0.0000000000000000e+00 1.5297103504905027e-02 2.5520526087445272e-01  0.0000000000000000e+00 1.5294826129525983e-02 2.5664716796742160e-01  0.0000000000000000e+00 1.5292669596856889e-02 2.5827985474355569e-01  0.0000000000000000e+00 1.5290909906166231e-02 2.6006607637900314e-01  0.0000000000000000e+00 1.5289709015989169e-02 2.6196992153005200e-01  0.0000000000000000e+00 1.5289107547598695e-02 2.6402952445843186e-01  0.0000000000000000e+00 1.5289316951768970e-02 2.6626439196788931e-01  0.0000000000000000e+00 1.5290501173772427e-02 2.6865485392381916e-01  0.0000000000000000e+00 1.5292929720992565e-02 2.7119790240111730e-01  0.0000000000000000e+00 1.5296865824202888e-02 2.7389684074542858e-01  0.0000000000000000e+00 1.5302149499034924e-02 2.7675377360290943e-01  0.0000000000000000e+00 1.5309277479939111e-02 2.7975172991511654e-01  0.0000000000000000e+00 1.5318479892486149e-02 2.8289572928991275e-01  0.0000000000000000e+00 1.5330005272689984e-02 2.8621836345645224e-01  0.0000000000000000e+00 1.5343978869651260e-02 2.8967177223428081e-01  0.0000000000000000e+00 1.5360399521272074e-02 2.9323713440744897e-01  0.0000000000000000e+00 1.5379672163845840e-02 2.9692704682003973e-01  0.0000000000000000e+00 1.5401915425480172e-02 3.0074210167491366e-01  0.0000000000000000e+00 1.5427366521805689e-02 3.0469381406694196e-01  0.0000000000000000e+00 1.5455699469887852e-02 3.0868883834706090e-01  0.0000000000000000e+00 1.5488530871968904e-02 3.1290866687168434e-01  0.0000000000000000e+00 1.5524504592066781e-02 3.1716102866290391e-01  0.0000000000000000e+00 1.5564268732446171e-02 3.2153318190865732e-01  0.0000000000000000e+00 1.5608175927854663e-02 3.2601662059024311e-01  0.0000000000000000e+00 1.5656530196531449e-02 3.3061674607329672e-01  0.0000000000000000e+00 1.5709520738954035e-02 3.3535221057196596e-01  0.0000000000000000e+00 1.5767663750084381e-02 3.4022886463798813e-01  0.0000000000000000e+00 1.5831496750261582e-02 3.4526711893409640e-01  0.0000000000000000e+00 1.5901375772574892e-02 3.5049939745533487e-01  0.0000000000000000e+00 1.5978398641695781e-02 3.5592709067216721e-01  0.0000000000000000e+00 1.6063040813289676e-02 3.6160022067855352e-01  0.0000000000000000e+00 1.6156468009681731e-02 3.6753359914572714e-01  0.0000000000000000e+00 1.6259811855263127e-02 3.7376850711342746e-01  0.0000000000000000e+00 1.6373369269709285e-02 3.8028924090353317e-01  0.0000000000000000e+00 1.6499532102290611e-02 3.8714861504353038e-01  0.0000000000000000e+00 1.6639130226850089e-02 3.9439933211826600e-01  0.0000000000000000e+00 1.6793229106825385e-02 4.0198704268377028e-01  0.0000000000000000e+00 1.6962389259283620e-02 4.0989557455246123e-01  0.0000000000000000e+00 1.7148886458544864e-02 4.1817581920405256e-01  0.0000000000000000e+00 1.7354008790947641e-02 4.2682681789595917e-01  0.0000000000000000e+00 1.7578015532748809e-02 4.3577482994964817e-01  0.0000000000000000e+00 1.7821295727347836e-02 4.4498447642398614e-01  0.0000000000000000e+00 1.8084321171235224e-02 4.5441404341967484e-01  0.0000000000000000e+00 1.8368441552364386e-02 4.6406247421159996e-01  0.0000000000000000e+00 1.8670898058852557e-02 4.7381680763053463e-01  0.0000000000000000e+00 1.8998783958069244e-02 4.8378616981660377e-01  0.0000000000000000e+00 1.9346749925029473e-02 4.9383580730373233e-01  0.0000000000000000e+00 1.9718301364535215e-02 5.0400154462172575e-01  0.0000000000000000e+00 2.0118139366424710e-02 5.1435838470315076e-01  0.0000000000000000e+00 2.0549423952318378e-02 5.2495377057771575e-01  0.0000000000000000e+00 2.1013240474899622e-02 5.3574498307573071e-01  0.0000000000000000e+00 2.1515414699879172e-02 5.4679828122962237e-01  0.0000000000000000e+00 2.2064873321822297e-02 5.5824318385668537e-01  0.0000000000000000e+00 2.2669054666986568e-02 5.7013355864868542e-01  0.0000000000000000e+00 2.3334356450659784e-02 5.8245860237277802e-01  0.0000000000000000e+00 2.4068357858319494e-02 5.9526085321542410e-01  0.0000000000000000e+00 2.4881291169542068e-02 6.0854504884531957e-01  0.0000000000000000e+00 2.5779535520590896e-02 6.2228829374364114e-01  0.0000000000000000e+00 2.6769259243204262e-02 6.3641312407224515e-01  0.0000000000000000e+00 2.7856253590677456e-02 6.5082895283322573e-01  0.0000000000000000e+00 2.9047983476641583e-02 6.6550063585267583e-01  0.0000000000000000e+00 3.0345673958985499e-02 6.8029301070730197e-01  0.0000000000000000e+00 3.1750285463055139e-02 6.9508204260315753e-01  0.0000000000000000e+00 3.3267199500553971e-02 7.0981480847856415e-01  0.0000000000000000e+00 3.4899586347501739e-02 7.2444945318629284e-01  0.0000000000000000e+00 3.6651845611420306e-02 7.3890911118787073e-01  0.0000000000000000e+00 3.8543714865884010e-02 7.5327919465435123e-01  0.0000000000000000e+00 4.0587907873069914e-02 7.6757030638638590e-01  0.0000000000000000e+00 4.2802131713883453e-02 7.8178331460792005e-01  0.0000000000000000e+00 4.5212680753709988e-02 7.9598074582726919e-01  0.0000000000000000e+00 4.7843966388711391e-02 8.1017400877605206e-01  0.0000000000000000e+00 5.0724399996206926e-02 8.2436535086528107e-01  0.0000000000000000e+00 5.3886244685942587e-02 8.3856377550850070e-01  0.0000000000000000e+00 5.7327915633174860e-02 8.5260881207564077e-01  0.0000000000000000e+00 6.1072194177758381e-02 8.6646197420897531e-01  0.0000000000000000e+00 6.5108928852897138e-02 8.7997682326326310e-01  0.0000000000000000e+00 6.9430851742732808e-02 8.9302905448990166e-01  0.0000000000000000e+00 7.4026991537296458e-02 9.0554514817962761e-01  0.0000000000000000e+00 7.8873095681892560e-02 9.1741251024929726e-01  0.0000000000000000e+00 8.3944469731833588e-02 9.2857453493375131e-01  0.0000000000000000e+00 8.9261264485077152e-02 9.3906631275612273e-01  0.0000000000000000e+00 9.4795852978592596e-02 9.4885352312233517e-01  0.0000000000000000e+00 1.0057967199727036e-01 9.5798365449122180e-01  0.0000000000000000e+00 1.0664771535448987e-01 9.6650353663091260e-01  0.0000000000000000e+00 1.1302330560779351e-01 9.7441741524707981e-01  0.0000000000000000e+00 1.1973240416996603e-01 9.8173251520667215e-01  0.0000000000000000e+00 1.2679463930973425e-01 9.8843070011824274e-01  0.0000000000000000e+00 1.3422022511760323e-01 9.9448388665850507e-01  0.0000000000000000e+00 1.4199226600548875e-01 9.9984674591471456e-01  0.0000000000000000e+00 1.5005957373455581e-01 1.0044663049558333e+00  0.0000000000000000e+00 1.5840360380283833e-01 1.0083280719194454e+00  0.0000000000000000e+00 1.6695095662072013e-01 1.0114125544023207e+00  0.0000000000000000e+00 1.7564040101661760e-01 1.0137234854761723e+00  0.0000000000000000e+00 1.8444429782702462e-01 1.0152906976495808e+00  0.0000000000000000e+00 1.9334847527576543e-01 1.0161500766034590e+00  0.0000000000000000e+00 2.0235966674697375e-01 1.0163321048247884e+00  0.0000000000000000e+00 2.1149669533711613e-01 1.0158672667998128e+00  0.0000000000000000e+00 2.2079050388733179e-01 1.0147724541151355e+00  0.0000000000000000e+00 2.3032520182110458e-01 1.0130342707755027e+00  0.0000000000000000e+00 2.4006140883090479e-01 1.0106795327441467e+00  0.0000000000000000e+00 2.5001320798658905e-01 1.0076875126200506e+00  0.0000000000000000e+00 2.6016542761203487e-01 1.0040723860204817e+00  0.0000000000000000e+00 2.7049858699562013e-01 9.9983820882035856e-01  0.0000000000000000e+00 2.8091778430332282e-01 9.9504400987390029e-01  0.0000000000000000e+00 2.9136376872552411e-01 9.8972837707999040e-01  0.0000000000000000e+00 3.0177918451856311e-01 9.8395106609724914e-01  0.0000000000000000e+00 3.1211588880387653e-01 9.7776883060149056e-01  0.0000000000000000e+00 3.2237233790596198e-01 9.7121403427536390e-01  0.0000000000000000e+00 3.3255087415606743e-01 9.6431347345463247e-01  0.0000000000000000e+00 3.4269237373551137e-01 9.5706218113461294e-01  0.0000000000000000e+00 3.5283664154974298e-01 9.4944964335700444e-01  0.0000000000000000e+00 3.6302717156474618e-01 9.4145460470511511e-01  0.0000000000000000e+00 3.7329036990121445e-01 9.3306336587464733e-01  0.0000000000000000e+00 3.9400920588160432e-01 9.1513487533205329e-01  0.0000000000000000e+00 4.0438916578718703e-01 9.0567772573166871e-01  0.0000000000000000e+00 4.1471578994579494e-01 8.9596642145476479e-01  0.0000000000000000e+00 4.2491686674591678e-01 8.8608638525505934e-01  0.0000000000000000e+00 4.3495290087112776e-01 8.7609509467639890e-01  0.0000000000000000e+00 4.4480180858036672e-01 8.6603558938600345e-01  0.0000000000000000e+00 4.5446059376332254e-01 8.5593171709708193e-01  0.0000000000000000e+00 4.6395556510609165e-01 8.4577436395426830e-01  0.0000000000000000e+00 4.7334429605308453e-01 8.3551587217184287e-01  0.0000000000000000e+00 4.8264416845403446e-01 8.2515099742297182e-01  0.0000000000000000e+00 4.9193173633537723e-01 8.1459696173064711e-01  0.0000000000000000e+00 5.0117909408020522e-01 8.0389792191787179e-01  0.0000000000000000e+00 5.1041290555021679e-01 7.9302401065461581e-01  0.0000000000000000e+00 5.1959487211363675e-01 7.8202630433081721e-01  0.0000000000000000e+00 5.2868248525159967e-01 7.7096363539660862e-01  0.0000000000000000e+00 5.3761118727124657e-01 7.5992314026483931e-01  0.0000000000000000e+00 5.4636626991534243e-01 7.4893705741989547e-01  0.0000000000000000e+00 5.5490244041347336e-01 7.3807384165747347e-01  0.0000000000000000e+00 5.6322367427180975e-01 7.2734165472211310e-01  0.0000000000000000e+00 5.7132950779214320e-01 7.1675440533311519e-01  0.0000000000000000e+00 5.7926972836015944e-01 7.0625772786384089e-01  0.0000000000000000e+00 5.8707794962975302e-01 6.9581547539298139e-01  0.0000000000000000e+00 5.9478861401933469e-01 6.8538839728894108e-01  0.0000000000000000e+00 6.0243357569426481e-01 6.7493832546358357e-01  0.0000000000000000e+00 6.1002579526894019e-01 6.6445141921805040e-01  0.0000000000000000e+00 6.1756037855099499e-01 6.5393774251162684e-01  0.0000000000000000e+00 6.2500212492373319e-01 6.4345025433443526e-01  0.0000000000000000e+00 6.3233059710560569e-01 6.3302328325980228e-01  0.0000000000000000e+00 6.3949613595912236e-01 6.2273373490343065e-01  0.0000000000000000e+00 6.4647783624186095e-01 6.1261846959137212e-01  0.0000000000000000e+00 6.5325290543855896e-01 6.0271887497643806e-01  0.0000000000000000e+00 6.5981333071419590e-01 5.9305448799131733e-01  0.0000000000000000e+00 6.6618136416184592e-01 5.8360032428602149e-01  0.0000000000000000e+00 6.7238848177515498e-01 5.7431608170943627e-01  0.0000000000000000e+00 6.7846716972372745e-01 5.6515849091763781e-01  0.0000000000000000e+00 6.8445347083436248e-01 5.5607702901075262e-01  0.0000000000000000e+00 6.9037430314214621e-01 5.4703412772597171e-01  0.0000000000000000e+00 6.9623783547329077e-01 5.3801886152780631e-01  0.0000000000000000e+00 7.0203777746540996e-01 5.2904365450066049e-01  0.0000000000000000e+00 7.0777024632013730e-01 5.2011657821257162e-01  0.0000000000000000e+00 7.1339202079358977e-01 5.1130734701939329e-01  0.0000000000000000e+00 7.1888478468729222e-01 5.0264832712438501e-01  0.0000000000000000e+00 7.2421821818583376e-01 4.9419108310526461e-01  0.0000000000000000e+00 7.2938280883536355e-01 4.8595558727997223e-01  0.0000000000000000e+00 7.3437009302596967e-01 4.7795987083222113e-01  0.0000000000000000e+00 7.3918330219901474e-01 4.7020289081692723e-01  0.0000000000000000e+00 7.4384112205207642e-01 4.6265891228338674e-01  0.0000000000000000e+00 7.4838313476857121e-01 4.5526733714670592e-01  0.0000000000000000e+00 7.5282000350268641e-01 4.4801300463391353e-01  0.0000000000000000e+00 7.5718672420679622e-01 4.4084114510666400e-01  0.0000000000000000e+00 7.6149543446867318e-01 4.3373312118272872e-01  0.0000000000000000e+00 7.6575746790479116e-01 4.2667165289122239e-01  0.0000000000000000e+00 7.6998278652194019e-01 4.1964086300303888e-01  0.0000000000000000e+00 7.7413996678652242e-01 4.1269431791986005e-01  0.0000000000000000e+00 7.7821420545215059e-01 4.0585806062666252e-01  0.0000000000000000e+00 7.8219986610970094e-01 3.9914341200690395e-01  0.0000000000000000e+00 7.8605593067540813e-01 3.9262110958936020e-01  0.0000000000000000e+00 7.8978056280485120e-01 3.8629693522526048e-01  0.0000000000000000e+00 7.9336826410121786e-01 3.8018252123984847e-01  0.0000000000000000e+00 7.9682271690946793e-01 3.7427399669289696e-01  0.0000000000000000e+00 8.0014347365466743e-01 3.6857446484999501e-01  0.0000000000000000e+00 8.0334341125755093e-01 3.6306395389228274e-01  0.0000000000000000e+00 8.0645319311140395e-01 3.5769143071734039e-01  0.0000000000000000e+00 8.0949372549648002e-01 3.5242210151360120e-01  0.0000000000000000e+00 8.1247848305273140e-01 3.4723365736462941e-01  0.0000000000000000e+00 8.1542088265103052e-01 3.4210355991772140e-01  0.0000000000000000e+00 8.1832558952627410e-01 3.3702422789711217e-01  0.0000000000000000e+00 8.2119836356345099e-01 3.3198606293129840e-01  0.0000000000000000e+00 8.2403985089819676e-01 3.2698830405468143e-01  0.0000000000000000e+00 8.2682292219696008e-01 3.2207917494244376e-01  0.0000000000000000e+00 8.2953682772952697e-01 3.1727846002466520e-01  0.0000000000000000e+00 8.3218930962266890e-01 3.1257316606244212e-01  0.0000000000000000e+00 8.3476782389111970e-01 3.0798640509938335e-01  0.0000000000000000e+00 8.3724085082268729e-01 3.0357523859565522e-01  0.0000000000000000e+00 8.3960633427165510e-01 2.9934461512770594e-01  0.0000000000000000e+00 8.4187753835059509e-01 2.9527210231343054e-01  0.0000000000000000e+00 8.4405109742885265e-01 2.9136489162205964e-01  0.0000000000000000e+00 8.4613525214362828e-01 2.8760929244784605e-01  0.0000000000000000e+00 8.4813801381966614e-01 2.8399187219921146e-01  0.0000000000000000e+00 8.5007021600383825e-01 2.8049397107616020e-01  0.0000000000000000e+00 8.5194774021660380e-01 2.7708759698915564e-01  0.0000000000000000e+00 8.5378098559694926e-01 2.7375447600268998e-01  0.0000000000000000e+00 8.5557738646087667e-01 2.7048153385068291e-01  0.0000000000000000e+00 8.5734374408206393e-01 2.6725673406850642e-01  0.0000000000000000e+00 8.5908397040581230e-01 2.6407319220022718e-01  0.0000000000000000e+00 8.6079967623958120e-01 2.6092818004366541e-01  0.0000000000000000e+00 8.6248982109053107e-01 2.5782377964689041e-01  0.0000000000000000e+00 8.6415169192715613e-01 2.5476515384003873e-01  0.0000000000000000e+00 8.6577993235013062e-01 2.5176236679367481e-01  0.0000000000000000e+00 8.6736862626401812e-01 2.4882657860742624e-01  0.0000000000000000e+00 8.6891225403207539e-01 2.4596829388211369e-01  0.0000000000000000e+00 8.7040457853672981e-01 2.4319942477551693e-01  0.0000000000000000e+00 8.7184180880535189e-01 2.4052742624609194e-01  0.0000000000000000e+00 8.7321973961044752e-01 2.3796058182906546e-01  0.0000000000000000e+00 8.7453649738874573e-01 2.3550289777508152e-01  0.0000000000000000e+00 8.7579197699899625e-01 2.3315509905322501e-01  0.0000000000000000e+00 8.7698601768185347e-01 2.3091802983578055e-01  0.0000000000000000e+00 8.7811836072221416e-01 2.2879274255138207e-01  0.0000000000000000e+00 8.7919887910711692e-01 2.2676120352754114e-01  0.0000000000000000e+00 8.8023321287552736e-01 2.2481327647507296e-01  0.0000000000000000e+00 8.8121584518044338e-01 2.2295971017983054e-01  0.0000000000000000e+00 8.8215344515530303e-01 2.2118833531275925e-01  0.0000000000000000e+00 8.8304414205990089e-01 2.1950303143978947e-01  0.0000000000000000e+00 8.8390565568513713e-01 2.1787069940268289e-01  0.0000000000000000e+00 8.8475467758494697e-01 2.1626008004674691e-01  0.0000000000000000e+00 8.8552599994634451e-01 2.1479441316333742e-01  0.0000000000000000e+00 8.8628818129687370e-01 2.1334456197490587e-01  0.0000000000000000e+00 8.8702102601418864e-01 2.1194881398165633e-01  0.0000000000000000e+00 8.8774171835166071e-01 2.1057473190591863e-01  0.0000000000000000e+00 8.8844297271178962e-01 2.0923624514717892e-01  0.0000000000000000e+00 8.8910239654576928e-01 2.0797598666371550e-01  0.0000000000000000e+00 8.8974456841002292e-01 2.0674743071974550e-01  0.0000000000000000e+00 8.9036895592603016e-01 2.0555169640905588e-01  0.0000000000000000e+00 8.9096540124633827e-01 2.0440824799682872e-01  0.0000000000000000e+00 8.9153782000069626e-01 2.0330973844598521e-01  0.0000000000000000e+00 8.9208908457442881e-01 2.0225080419406943e-01  0.0000000000000000e+00 8.9261131438206953e-01 2.0124664149307470e-01  0.0000000000000000e+00 8.9311269338283206e-01 2.0028171455871407e-01  0.0000000000000000e+00 8.9359626308051832e-01 1.9935034481204306e-01  0.0000000000000000e+00 8.9403125727695310e-01 1.9851149973466428e-01  0.0000000000000000e+00 8.9447197743029905e-01 1.9766132300381495e-01  0.0000000000000000e+00 8.9484455335716939e-01 1.9694150761075147e-01  0.0000000000000000e+00 8.9521951943256783e-01 1.9621693882590219e-01  0.0000000000000000e+00 8.9556374722669085e-01 1.9555123484204559e-01  0.0000000000000000e+00 8.9588477088263974e-01 1.9493003733945510e-01  0.0000000000000000e+00 8.9616986833689960e-01 1.9437789907946448e-01  0.0000000000000000e+00 8.9645086137567798e-01 1.9383370329928865e-01  0.0000000000000000e+00 8.9665015683511862e-01 1.9344678854175404e-01  0.0000000000000000e+00 8.9686443558882556e-01 1.9303127176476145e-01  0.0000000000000000e+00 8.9704446478665090e-01 1.9268190473348706e-01  0.0000000000000000e+00 8.9732972215926776e-01 1.9212809169052270e-01  0.0000000000000000e+00 8.9743852310060324e-01 1.9191684746477064e-01  0.0000000000000000e+00 8.9751869539767726e-01 1.9176112986688737e-01  0.0000000000000000e+00 8.9756397687110856e-01 1.9167303637375577e-01  0.0000000000000000e+00 8.9757674763432904e-01 1.9164798742330325e-01  0.0000000000000000e+00 8.9759616048235968e-01 1.9161051683521879e-01  0.0000000000000000e+00 8.9755688216582719e-01 1.9168658102156255e-01  0.0000000000000000e+00 8.9752640399855899e-01 1.9174606827392116e-01  0.0000000000000000e+00 8.9744322754993933e-01 1.9190746746916912e-01  0.0000000000000000e+00 8.9734498941481533e-01 1.9209823893999184e-01  0.0000000000000000e+00 8.9722405439833097e-01 1.9233305794460701e-01  0.0000000000000000e+00 8.9707638845943671e-01 1.9261967922052861e-01  0.0000000000000000e+00 8.9690285289965421e-01 1.9295637425182099e-01  0.0000000000000000e+00 8.9671186195995889e-01 1.9332690770129335e-01  0.0000000000000000e+00 8.9649999565876326e-01 1.9373780537061386e-01  0.0000000000000000e+00 8.9625456805981085e-01 1.9421338048510592e-01  0.0000000000000000e+00 8.9599313386746071e-01 1.9471982709149302e-01  0.0000000000000000e+00 8.9570099466452457e-01 1.9528531513602279e-01  0.0000000000000000e+00 8.9537309470744131e-01 1.9591945298343469e-01  0.0000000000000000e+00 8.9504617414493248e-01 1.9655161745147748e-01  0.0000000000