<?xml version="1.0"?>
<VTKFile type="UnstructuredGrid"  version="0.1"  >
<UnstructuredGrid>
<Piece  NumberOfPoints="25605" NumberOfCells="50684">
<Points>
<DataArray  type="Float64"  NumberOfComponents="3"  format="ascii">500 250 0  0 250 0  250 500 0  250 0 0  252.9976310880008 499.9820277697183 0  255.994831180465 499.9281136629446 0  258.9911693467 499.8382654314166 0  261.9862147844171 499.7124959931758 0  264.9795368730259 499.550823430959 0  267.9707052380909 499.3532709896657 0  270.9592898147818 499.1198670729815 0  273.944860911003 498.850645239173 0  276.9269892620302 498.5456441969613 0  279.9052461102784 498.204907798141 0  282.879203246639 497.8284850332306 0  285.8484330760252 497.4164300243493 0  288.812508703066 496.9688020138868 0  291.7710039592635 496.4856653605544 0  294.7234934645729 495.9670895309458 0  297.6695527219374 495.4131490839284 0  300.6087581526373 494.8239236640241 0  303.5406871632312 494.1994979890193 0  306.4649182085955 493.5399618372653 0  309.3810308492501 492.8454100354388 0  312.2886058121011 492.1159424449053 0  315.1872250543244 491.3516639464432 0  318.0764718164482 490.552684426976 0  320.9559306911491 489.7191187614222 0  323.8251876776197 488.8510867975364 0  326.6838302398962 487.9487133391117 0  329.5314473625203 487.0121281293906 0  332.3676296259557 486.0414658270902 0  335.1919692490408 485.0368659922747 0  338.0040601519906 483.9984730650284 0  340.8034980252745 482.926436340691 0  343.5898803648273 481.8209099570125 0  346.3628065522297 480.6820528636277 0  349.1218779058009 479.5100288014175 0  351.866697726272 478.3050062840155 0  354.5968713702315 477.0671585667096 0  357.3120063039883 475.7966636224122 0  360.0117121560444 474.4937041177227 0  362.6956007624657 473.158467392091 0  365.3632862410136 471.7911454221605 0  368.0143850392318 470.39193479756 0  370.6485159774368 468.9610366993228 0  373.2653003309281 467.4986568563726 0  375.8643618621848 466.0050055277077 0  378.4453268904447 464.4802974634425 0  381.0078243277097 462.9247518841339 0  383.5514857466806 461.3385924407896 0  386.0759454147861 459.7220471945478 0  388.5808403686633 458.0753485704519 0  391.0658104727646 456.398733318938 0  393.5304984398443 454.6924425024281 0  395.9745499014433 452.9567214483695 0  398.3976134594079 451.1918197133078 0  400.7993407313268 449.3979910505549 0  403.1793863983767 447.5754933756127 0  405.5374082633365 445.7245887228382 0  407.8730672875487 443.8455432173283 0  410.1860276678057 441.9386270139729 0  412.4759568502628 440.0041142859584 0  414.7425255888164 438.0422831775295 0  416.9854079982472 436.0534157591817 0  419.2042816111551 434.0377979776246 0  421.3988273934515 431.9957196423856 0  423.5687298230711 429.9274743545459 0  425.7136769203488 427.833359477718 0  427.8333602660664 425.7136761224903 0  429.9274751166117 423.5687290330868 0  431.9957203865596 421.3988266032683 0  434.0377986976932 419.2042808279605 0  436.0534164531565 416.9854072250276 0  438.0422838486247 414.7425248228072 0  440.0041149354581 412.4759560907189 0  441.9386276454979 410.1860269110977 0  443.8455438341414 407.8730665301906 0  445.7245893245478 405.5374075061595 0  447.5754939498422 403.1793856577179 0  449.3979916037435 400.7993399998601 0  451.1918202566634 398.3976127227471 0  452.9567219786559 395.9745491641559 0  454.6924430171686 393.53049770576 0  456.3987338202434 391.0658097392857 0  458.0753490553683 388.5808396405746 0  459.7220476673142 386.0759446861523 0  461.3385928978555 383.5514850233965 0  462.924752323721 381.0078236132563 0  464.4802978831972 378.4453261895309 0  466.005005928237 375.8643611748071 0  467.4986572464557 373.2652996426359 0  468.9610370690891 370.64851530636 0  470.3919351512159 368.0143843787793 0  471.7911457549822 365.363285601149 0  473.1584677051019 362.6956001426453 0  474.4937044170927 360.0117115451396 0  475.7966639080153 357.3120057030471 0  477.0671588375024 354.5968707823731 0  478.3050065468899 351.8666971371142 0  479.5100290514928 349.1218773267684 0  480.68205310082 346.3628059844174 0  481.8209101826405 343.5898798059497 0  482.926436550004 340.8034974883511 0  483.9984732613996 338.0040596298491 0  485.0368661774559 335.1919687381426 0  486.0414660017697 332.3676291253755 0  487.0121282892932 329.5314468859938 0  487.9487134870012 326.6838297809975 0  488.8510869337421 323.825187236945 0  489.7191188882317 320.9559302627332 0  490.5526845449373 318.0764713996244 0  491.3516640573307 315.1872246437704 0  492.1159425458163 312.2886054198597 0  492.8454101279934 309.3810304707378 0  493.5399619220304 306.4649178429931 0  494.1994980644915 303.5406868190015 0  494.8239237308971 300.6087578291331 0  495.4131491423161 297.6695524213444 0  495.9670895813101 294.7234931875826 0  496.4856654030534 291.7710037084818 0  496.9688020494549 288.8125084767419 0  497.416430053242 285.8484328766153 0  497.8284850586459 282.8792030550702 0  498.2049078189591 279.9052459374942 0  498.5456442137286 276.9269891072627 0  498.850645253019 273.9448607671062 0  499.1198670835989 270.9592896885852 0  499.3532709967772 267.9707051394148 0  499.5508234355897 264.9795367958812 0  499.7124959959075 261.9862147275054 0  499.8382654331632 258.9911692981657 0  499.928113663985 255.99483113709 0  499.9820277699785 252.9976310663071 0  499.9820277697257 247.0023689126091 0  499.9281136630343 244.0051688232745 0  499.8382654314717 241.0088306548307 0  499.7124959931211 238.0137852144455 0  499.5508234310553 235.0204631285785 0  499.3532709900699 232.0292947675166 0  499.119867073792 229.0407101948513 0  498.8506452406773 226.0551391046306 0  498.5456441987692 223.0730107546571 0  498.2049078002218 220.0947539069917 0  497.8284850356648 217.120796771709 0  497.4164300267099 214.151566940267 0  496.968802017216 211.187491318118 0  496.4856653659872 208.2289960727951 0  495.9670895372035 205.2765065698432 0  495.4131490907147 202.330447313 0  494.8239236713522 199.3912418828135 0  494.1994979969027 196.4593128727251 0  493.5399618460726 193.5350818293917 0  492.8454100458835 190.6189691934644 0  492.1159424557956 187.7113942302294 0  491.3516639574156 184.8127749862999 0  490.5526844387521 181.923528225163 0  489.7191187738694 179.0440693509028 0  488.851086810667 176.1748123648628 0  487.948713352938 173.3161698030064 0  487.0121281439243 170.4685526807917 0  486.0414658415049 167.6323704153526 0  485.0368660060558 164.8080307889799 0  483.9984730779887 161.9959398824702 0  482.9264363544502 159.1965020100202 0  481.8209099702043 156.4101196678486 0  480.6820528745703 153.6371934739656 0  479.5100288124721 150.8781221197951 0  478.3050062927852 148.1333022933829 0  477.0671585723666 145.403128642049 0  475.796663627405 142.687993706517 0  474.4937041236649 139.9882878560814 0  473.1584673984938 137.3043992502131 0  471.7911454319914 134.6367137778867 0  470.3919348096422 131.9856149833316 0  468.9610367113798 129.3514840444451 0  467.49865687022 126.7346996935054 0  466.0050055427385 124.1356381636107 0  464.4802974781252 121.5546731340727 0  462.9247519005733 118.992175699009 0  461.3385924615702 116.4485142862037 0  459.722047215144 113.924054616957 0  458.0753485880027 111.4191596576888 0  456.3987333337139 108.9341895488548 0  454.692442514023 106.4695015766915 0  452.95672145825 104.0254501122942 0  451.1918197247282 101.6023865560754 0  449.3979910627008 99.20065928473332 0  447.5754933882043 96.82061361786421 0  445.7245887341124 94.46259175085058 0  443.8455432269008 92.12693272420489 0  441.9386270210269 89.81397234064673 0  440.0041142971544 87.52404316283014 0  438.0422831897421 85.25747442512349 0  436.0534157701649 83.01459201399018 0  434.0377979907771 80.79571840315057 0  431.9957196541004 78.60117261898753 0  429.9274743620823 76.43127018474144 0  427.8333594859367 74.28632308796901 0  425.7136761283247 72.16663973969838 0  423.5687290359737 70.07252488617331 0  421.3988265987173 68.00427960915448 0  419.2042808240311 65.962201298694 0  416.9854072196475 63.94658354201471 0  414.742524818212 61.95771614734943 0  412.4759560828471 59.99588505781063 0  410.1860269003736 58.06137234555209 0  407.8730665183855 56.15445615624427 0  405.5374074948106 54.27541066643354 0  403.1793856410161 52.424506037209 0  400.7993399855741 50.60200838545225 0  398.3976127114923 48.80817973503514 0  395.9745491514178 47.04327801218227 0  393.5304976958927 45.30755697591243 0  391.0658097308475 43.60126617398947 0  388.5808396359472 41.92465094154986 0  386.0759446832285 40.27795233078868 0  383.5514850239504 38.66140710249451 0  381.007823619977 37.07524768041412 0  378.4453262000283 35.51970212308933 0  375.8643611921311 33.99499408185753 0  373.2652996617874 32.50134276439832 0  370.6485153256615 31.03896294154612 0  368.0143843882092 29.60806485383361 0  365.3632855907917 28.2088542396306 0  362.6956001322776 26.84153228966238 0  360.0117115354126 25.50629557814059 0  357.3120057003284 24.20333609069269 0  354.596870775138 22.93284115916481 0  351.8666971306181 21.69499345021163 0  349.121877320111 20.48997094563194 0  346.3628059771881 19.31794689616012 0  343.5898798100648 18.17908981902079 0  340.8034974914794 17.07356345121562 0  338.0040596332272 16.00152673987083 0  335.1919687416658 14.9631338238211 0  332.3676291322006 13.95853400061199 0  329.5314468917599 12.98787171264172 0  326.6838297822748 12.05128651341042 0  323.8251872378164 11.14891306652726 0  320.9559302656854 10.28088111264219 0  318.076471404611 9.447315456473888 0  315.1872246503818 8.648335944454999 0  312.2886054290304 7.88405745654299 0  309.3810304838133 7.154589875203868 0  306.4649178487239 6.460038079298243 0  303.5406868253978 5.800501936910877 0  300.6087578339258 5.176076270093546 0  297.669552426172 4.586850858621602 0  294.7234931936628 4.0329104197954 0  291.7710037123022 3.514334597594029 0  288.8125084726372 3.031197949900047 0  285.8484328697872 2.58356994576863 0  282.8792030484304 2.171514940473202 0  279.905245932244 1.795092180408318 0  276.9269891008954 1.454
[...]
<PointData  Vectors="f_12"> 
<DataArray  type="Float64"  Name="f_12"  NumberOfComponents="3" format="ascii">0.0000000000000000e+00 3.9422483302524081e-01 9.1493924534876470e-01  0.0000000000000000e+00 6.6243839384979264e-01 5.8917511337529171e-01  0.0000000000000000e+00 1.5317860215308196e-02 2.4885821951612982e-01  0.0000000000000000e+00 8.9807060735142230e-01 1.9068574222757001e-01  0.0000000000000000e+00 1.5321225566182685e-02 2.4775481278801251e-01  0.0000000000000000e+00 1.5324424404600681e-02 2.4675158921426610e-01  0.0000000000000000e+00 1.5327192617557866e-02 2.4593150130533373e-01  0.0000000000000000e+00 1.5329514339661966e-02 2.4529096691908031e-01  0.0000000000000000e+00 1.5331315474096080e-02 2.4480082806247749e-01  0.0000000000000000e+00 1.5332648699752385e-02 2.4443995949725061e-01  0.0000000000000000e+00 1.5333427128936457e-02 2.4423033055527504e-01  0.0000000000000000e+00 1.5333686185083836e-02 2.4415514441471453e-01  0.0000000000000000e+00 1.5333394989739844e-02 2.4421750093632691e-01  0.0000000000000000e+00 1.5332561031502080e-02 2.4442205760582675e-01  0.0000000000000000e+00 1.5331255503296424e-02 2.4475432554560600e-01  0.0000000000000000e+00 1.5329353245547149e-02 2.4526015772316315e-01  0.0000000000000000e+00 1.5327063652754332e-02 2.4589019586241284e-01  0.0000000000000000e+00 1.5324408666971398e-02 2.4663999897162259e-01  0.0000000000000000e+00 1.5321356059773941e-02 2.4754554862538736e-01  0.0000000000000000e+00 1.5318055886856486e-02 2.4859491988814439e-01  0.0000000000000000e+00 1.5314559682126517e-02 2.4978662591025294e-01  0.0000000000000000e+00 1.5311004349729190e-02 2.5110078398475072e-01  0.0000000000000000e+00 1.5307550065427300e-02 2.5254143533722512e-01  0.0000000000000000e+00 1.5304072479760129e-02 2.5418279964190826e-01  0.0000000000000000e+00 1.5300890132211132e-02 2.5597618874006822e-01  0.0000000000000000e+00 1.5298209144141275e-02 2.5787560171342194e-01  0.0000000000000000e+00 1.5296023465480049e-02 2.5992915553297269e-01  0.0000000000000000e+00 1.5294525371235445e-02 2.6216151658010883e-01  0.0000000000000000e+00 1.5293902073332309e-02 2.6454725432800424e-01  0.0000000000000000e+00 1.5294444154025671e-02 2.6708332028562876e-01  0.0000000000000000e+00 1.5296403774175146e-02 2.6977448434555751e-01  0.0000000000000000e+00 1.5299600683289402e-02 2.7262707382054552e-01  0.0000000000000000e+00 1.5304551206139064e-02 2.7561905378171209e-01  0.0000000000000000e+00 1.5311511576778234e-02 2.7875973252036368e-01  0.0000000000000000e+00 1.5320765708139105e-02 2.8209388453278572e-01  0.0000000000000000e+00 1.5332432963931554e-02 2.8556507529734088e-01  0.0000000000000000e+00 1.5346513986189017e-02 2.8915094169706551e-01  0.0000000000000000e+00 1.5363465620101996e-02 2.9287109086401125e-01  0.0000000000000000e+00 1.5383463829015580e-02 2.9673046746661852e-01  0.0000000000000000e+00 1.5406780244264331e-02 3.0074695930532519e-01  0.0000000000000000e+00 1.5433013926748573e-02 3.0480266957079083e-01  0.0000000000000000e+00 1.5464161811121278e-02 3.0913583543351975e-01  0.0000000000000000e+00 1.5498545642793540e-02 3.1349599240878262e-01  0.0000000000000000e+00 1.5537024457333170e-02 3.1799769513963877e-01  0.0000000000000000e+00 1.5579956148318721e-02 3.2262801655554496e-01  0.0000000000000000e+00 1.5627678758247162e-02 3.2739112854518976e-01  0.0000000000000000e+00 1.5680415755170207e-02 3.3230741515655943e-01  0.0000000000000000e+00 1.5738687586785934e-02 3.3737843662001110e-01  0.0000000000000000e+00 1.5803050872859617e-02 3.4262344119221244e-01  0.0000000000000000e+00 1.5873875488442702e-02 3.4807673848458132e-01  0.0000000000000000e+00 1.5952203910884120e-02 3.5372856178677303e-01  0.0000000000000000e+00 1.6038546145517342e-02 3.5963457489063710e-01  0.0000000000000000e+00 1.6134002973737595e-02 3.6580137802519197e-01  0.0000000000000000e+00 1.6239724400996542e-02 3.7227094669415306e-01  0.0000000000000000e+00 1.6355761835001092e-02 3.7901233339484480e-01  0.0000000000000000e+00 1.6484525059659395e-02 3.8607978215682065e-01  0.0000000000000000e+00 1.6627089495837410e-02 3.9354060544437469e-01  0.0000000000000000e+00 1.6784061742245136e-02 4.0131371303764457e-01  0.0000000000000000e+00 1.6955754265634736e-02 4.0937551926541060e-01  0.0000000000000000e+00 1.7144845895765905e-02 4.1779582019470995e-01  0.0000000000000000e+00 1.7352879644244951e-02 4.2658427751258993e-01  0.0000000000000000e+00 1.7579748352967006e-02 4.3565387397348571e-01  0.0000000000000000e+00 1.7826036243857309e-02 4.4497621800352405e-01  0.0000000000000000e+00 1.8092366980356364e-02 4.5451614178943511e-01  0.0000000000000000e+00 1.8380701335728628e-02 4.6429109258550605e-01  0.0000000000000000e+00 1.8687930934239677e-02 4.7417676917722851e-01  0.0000000000000000e+00 1.9022943510234012e-02 4.8432968930419917e-01  0.0000000000000000e+00 1.9379482370677693e-02 4.9458464030525306e-01  0.0000000000000000e+00 1.9761921385189972e-02 5.0499586636742277e-01  0.0000000000000000e+00 2.0176105101286337e-02 5.1565631835128822e-01  0.0000000000000000e+00 2.0625998479378363e-02 5.2662158261309300e-01  0.0000000000000000e+00 2.1111825698240820e-02 5.3781808324105096e-01  0.0000000000000000e+00 2.1639603482909019e-02 5.4930365352705557e-01  0.0000000000000000e+00 2.2219572431476948e-02 5.6122320761456357e-01  0.0000000000000000e+00 2.2859507103859797e-02 5.7362102059674280e-01  0.0000000000000000e+00 2.3564544748711554e-02 5.8644815946470497e-01  0.0000000000000000e+00 2.4342183435589925e-02 5.9973465703844886e-01  0.0000000000000000e+00 2.5202342902839799e-02 6.1346847826460571e-01  0.0000000000000000e+00 2.6150998153635075e-02 6.2761744041358514e-01  0.0000000000000000e+00 2.7193165596331139e-02 6.4208177311251624e-01  0.0000000000000000e+00 2.8333911401118642e-02 6.5676453195284179e-01  0.0000000000000000e+00 2.9582430426762563e-02 6.7165453379858286e-01  0.0000000000000000e+00 3.0940336566175140e-02 6.8662489073533894e-01  0.0000000000000000e+00 3.2408697152888612e-02 7.0155454651201665e-01  0.0000000000000000e+00 3.3996261870148890e-02 7.1642348327244909e-01  0.0000000000000000e+00 3.5709477519638030e-02 7.3121394907015347e-01  0.0000000000000000e+00 3.7554321009637036e-02 7.4585125458569834e-01  0.0000000000000000e+00 3.9557323099172023e-02 7.6045113988871638e-01  0.0000000000000000e+00 4.1734711736482272e-02 7.7502753500480159e-01  0.0000000000000000e+00 4.4104088646965897e-02 7.8955278310993726e-01  0.0000000000000000e+00 4.6693760890758530e-02 8.0407623246871351e-01  0.0000000000000000e+00 4.9526388415222798e-02 8.1857891711988529e-01  0.0000000000000000e+00 5.2626813914134304e-02 8.3302951075166842e-01  0.0000000000000000e+00 5.6026505948630748e-02 8.4742166626086368e-01  0.0000000000000000e+00 5.9709676105933737e-02 8.6154781156202798e-01  0.0000000000000000e+00 6.3696343307214104e-02 8.7536843421034860e-01  0.0000000000000000e+00 6.7969612368205257e-02 8.8874028312166942e-01  0.0000000000000000e+00 7.2516224909959973e-02 9.0154438402637938e-01  0.0000000000000000e+00 7.7332128820873577e-02 9.1374967528587381e-01  0.0000000000000000e+00 8.2393459358254165e-02 9.2526123297833818e-01  0.0000000000000000e+00 8.7683102019283005e-02 9.3605159829649187e-01  0.0000000000000000e+00 9.3239102147121222e-02 9.4618445499704928e-01  0.0000000000000000e+00 9.9037102095869980e-02 9.5562900385264349e-01  0.0000000000000000e+00 1.0511668661407154e-01 9.6442887313969627e-01  0.0000000000000000e+00 1.1152012036732380e-01 9.7262481860243821e-01  0.0000000000000000e+00 1.1826122874072886e-01 9.8019541620652728e-01  0.0000000000000000e+00 1.2535486943164101e-01 9.8712860185845874e-01  0.0000000000000000e+00 1.3280311471955009e-01 9.9338894744706518e-01  0.0000000000000000e+00 1.4059753250527396e-01 9.9894057915389167e-01  0.0000000000000000e+00 1.4870502141907974e-01 1.0037426919369177e+00  0.0000000000000000e+00 1.5705538544565986e-01 1.0077542149895362e+00  0.0000000000000000e+00 1.6563632604763862e-01 1.0109815148569115e+00  0.0000000000000000e+00 1.7437864068087638e-01 1.0134266371471958e+00  0.0000000000000000e+00 1.8323168771951850e-01 1.0151091516991411e+00  0.0000000000000000e+00 1.9219173928179875e-01 1.0160672610206398e+00  0.0000000000000000e+00 2.0127209916058289e-01 1.0163371657185629e+00  0.0000000000000000e+00 2.1049335595451787e-01 1.0159406916126628e+00  0.0000000000000000e+00 2.1988091960448997e-01 1.0148973640777104e+00  0.0000000000000000e+00 2.2946349554925452e-01 1.0132147804524672e+00  0.0000000000000000e+00 2.3931748931753796e-01 1.0108679691865434e+00  0.0000000000000000e+00 2.4937074398075010e-01 1.0078930843507630e+00  0.0000000000000000e+00 2.5960287213501704e-01 1.0042811001206093e+00  0.0000000000000000e+00 2.6997562829631749e-01 1.0000632226979413e+00  0.0000000000000000e+00 2.8046521039735012e-01 9.9525559553444098e-01  0.0000000000000000e+00 2.9096700277497151e-01 9.8993549341861597e-01  0.0000000000000000e+00 3.0142883731606579e-01 9.8414861967888723e-01  0.0000000000000000e+00 3.1182253855716852e-01 9.7794617036705012e-01  0.0000000000000000e+00 3.2212574893867257e-01 9.7137235819659462e-01  0.0000000000000000e+00 3.3236837970123306e-01 9.6443639931928304e-01  0.0000000000000000e+00 3.4257594566756600e-01 9.5714404214009086e-01  0.0000000000000000e+00 3.5279421504130631e-01 9.4947883855955761e-01  0.0000000000000000e+00 3.6305707274519278e-01 9.4142758682567396e-01  0.0000000000000000e+00 3.7338842484340801e-01 9.3297885274051162e-01  0.0000000000000000e+00 3.8378755257443153e-01 9.2413883974575040e-01  0.0000000000000000e+00 4.0465022592264993e-01 9.0543330036978809e-01  0.0000000000000000e+00 4.1500162254304801e-01 8.9569163205347468e-01  0.0000000000000000e+00 4.2523293099283377e-01 8.8577358571151066e-01  0.0000000000000000e+00 4.3528768170514143e-01 8.7575525068721027e-01  0.0000000000000000e+00 4.4515399790230276e-01 8.6566937947182798e-01  0.0000000000000000e+00 4.5484029366467543e-01 8.5552782167597519e-01  0.0000000000000000e+00 4.6436771813906419e-01 8.4532664005459057e-01  0.0000000000000000e+00 4.7377749559777005e-01 8.3503650798381079e-01  0.0000000000000000e+00 4.8312984848273793e-01 8.2460145021535958e-01  0.0000000000000000e+00 4.9242842669455550e-01 8.1402797985745301e-01  0.0000000000000000e+00 5.0173273353996761e-01 8.0324874466435736e-01  0.0000000000000000e+00 5.1098131316940976e-01 7.9234705296088881e-01  0.0000000000000000e+00 5.2017580694172483e-01 7.8132318041064330e-01  0.0000000000000000e+00 5.2926482070081393e-01 7.7024728979525259e-01  0.0000000000000000e+00 5.3820165743747705e-01 7.5918694330647163e-01  0.0000000000000000e+00 5.4692813317819733e-01 7.4822537341315520e-01  0.0000000000000000e+00 5.5545495732119599e-01 7.3736450372243489e-01  0.0000000000000000e+00 5.6375987783581083e-01 7.2664458339164739e-01  0.0000000000000000e+00 5.7187232678451583e-01 7.1603967030777926e-01  0.0000000000000000e+00 5.7980910989949208e-01 7.0553907922424330e-01  0.0000000000000000e+00 5.8762708006661379e-01 6.9507576314836894e-01  0.0000000000000000e+00 5.9535785154801302e-01 6.8461332608738357e-01  0.0000000000000000e+00 6.0301862691268593e-01 6.7413341851740771e-01  0.0000000000000000e+00 6.1061953382177148e-01 6.6362614159143485e-01  0.0000000000000000e+00 6.1814999217415578e-01 6.5311005044962711e-01  0.0000000000000000e+00 6.2558774384884364e-01 6.4262044323979550e-01  0.0000000000000000e+00 6.3288518410651695e-01 6.3222981193426564e-01  0.0000000000000000e+00 6.4002527942470111e-01 6.2196949064531171e-01  0.0000000000000000e+00 6.4696862135407840e-01 6.1190363796854363e-01  0.0000000000000000e+00 6.5371174605544569e-01 6.0204475589103301e-01  0.0000000000000000e+00 6.6025430779590499e-01 5.9240156116248022e-01  0.0000000000000000e+00 6.6660805004566603e-01 5.8296374089337166e-01  0.0000000000000000e+00 6.7280754445727453e-01 5.7368635553486624e-01  0.0000000000000000e+00 6.7888862248955373e-01 5.6452069311983566e-01  0.0000000000000000e+00 6.8487892280863494e-01 5.5542896928590946e-01  0.0000000000000000e+00 6.9080175687853662e-01 5.4637846849619565e-01  0.0000000000000000e+00 6.9666646202748184e-01 5.3735756318755523e-01  0.0000000000000000e+00 7.0246357700010820e-01 5.2838229506357659e-01  0.0000000000000000e+00 7.0817076753316210e-01 5.1949041432607634e-01  0.0000000000000000e+00 7.1377565086144934e-01 5.1070403418711330e-01  0.0000000000000000e+00 7.1923458569470156e-01 5.0209488067460906e-01  0.0000000000000000e+00 7.2453530511079933e-01 4.9368671024695815e-01  0.0000000000000000e+00 7.2966073644005258e-01 4.8551085698609919e-01  0.0000000000000000e+00 7.3461801158189710e-01 4.7756086096742373e-01  0.0000000000000000e+00 7.3941377250626561e-01 4.6983024429616738e-01  0.0000000000000000e+00 7.4406345593680356e-01 4.6229762827508014e-01  0.0000000000000000e+00 7.4859213824990789e-01 4.5492589728059524e-01  0.0000000000000000e+00 7.5303916526864179e-01 4.4765364648758893e-01  0.0000000000000000e+00 7.5740921095721025e-01 4.4047466981950451e-01  0.0000000000000000e+00 7.6172661211597692e-01 4.3335084383242778e-01  0.0000000000000000e+00 7.6599012150789303e-01 4.2628521710075473e-01  0.0000000000000000e+00 7.7019810145428824e-01 4.1928188077463435e-01  0.0000000000000000e+00 7.7434975575585985e-01 4.1234301760899239e-01  0.0000000000000000e+00 7.7840801572747409e-01 4.0553224847561886e-01  0.0000000000000000e+00 7.8235694090795815e-01 3.9887809755620074e-01  0.0000000000000000e+00 7.8619447579166435e-01 3.9238630183198786e-01  0.0000000000000000e+00 7.8988881184303250e-01 3.8611263260869844e-01  0.0000000000000000e+00 7.9344860545996998e-01 3.8004514907469006e-01  0.0000000000000000e+00 7.9687935114072161e-01 3.7417669938590298e-01  0.0000000000000000e+00 8.0019420957285892e-01 3.6848691203498091e-01  0.0000000000000000e+00 8.0339898882721184e-01 3.6296776757798044e-01  0.0000000000000000e+00 8.0650927712836740e-01 3.5759409765188438e-01  0.0000000000000000e+00 8.0955440085001806e-01 3.5231656112029008e-01  0.0000000000000000e+00 8.1255085432836649e-01 3.4710749856701645e-01  0.0000000000000000e+00 8.1550462395495904e-01 3.4195723579077170e-01  0.0000000000000000e+00 8.1842101024200575e-01 3.3685711955286873e-01  0.0000000000000000e+00 8.2129627093579805e-01 3.3181417483613140e-01  0.0000000000000000e+00 8.2412904262258568e-01 3.2683131464340937e-01  0.0000000000000000e+00 8.2691464349809196e-01 3.2191728980019885e-01  0.0000000000000000e+00 8.2962373600294104e-01 3.1712457587497261e-01  0.0000000000000000e+00 8.3224642438359020e-01 3.1247172702020648e-01  0.0000000000000000e+00 8.3479356568799579e-01 3.0794040445421689e-01  0.0000000000000000e+00 8.3725780243645920e-01 3.0354471565586760e-01  0.0000000000000000e+00 8.3961417352727552e-01 2.9933025514431383e-01  0.0000000000000000e+00 8.4186709046584085e-01 2.9529040693016678e-01  0.0000000000000000e+00 8.4403526511376425e-01 2.9139282853048132e-01  0.0000000000000000e+00 8.4611957243947156e-01 2.8763695921102017e-01  0.0000000000000000e+00 8.4813081159437498e-01 2.8400427612149021e-01  0.0000000000000000e+00 8.5007770487519996e-01 2.8047982200828270e-01  0.0000000000000000e+00 8.5196998903518029e-01 2.7704666963976932e-01  0.0000000000000000e+00 8.5382113871549514e-01 2.7368094007889560e-01  0.0000000000000000e+00 8.5563810075760394e-01 2.7037043300670305e-01  0.0000000000000000e+00 8.5742436887133011e-01 2.6710910056369919e-01  0.0000000000000000e+00 8.5918262226612419e-01 2.6389232384753453e-01  0.0000000000000000e+00 8.6091284640075871e-01 2.6072034859370191e-01  0.0000000000000000e+00 8.6261329982636858e-01 2.5759659074200753e-01  0.0000000000000000e+00 8.6428041403202482e-01 2.5452782283251235e-01  0.0000000000000000e+00 8.6590995797226833e-01 2.5152208529613068e-01  0.0000000000000000e+00 8.6749616233008220e-01 2.4859031756192673e-01  0.0000000000000000e+00 8.6903372463625894e-01 2.4574266964842625e-01  0.0000000000000000e+00 8.7051859845010404e-01 2.4298703697779839e-01  0.0000000000000000e+00 8.7194670298884580e-01 2.4033143878436200e-01  0.0000000000000000e+00 8.7331671139777689e-01 2.3777882592690475e-01  0.0000000000000000e+00 8.7462702842534945e-01 2.3533267308321518e-01  0.0000000000000000e+00 8.7587819556931334e-01 2.3299249514693871e-01  0.0000000000000000e+00 8.7707216578233116e-01 2.3075515357927273e-01  0.0000000000000000e+00 8.7821041567164748e-01 2.2861838728738484e-01  0.0000000000000000e+00 8.7929374432687224e-01 2.2658120662219533e-01  0.0000000000000000e+00 8.8033242637563158e-01 2.2462472767517108e-01  0.0000000000000000e+00 8.8133214480233479e-01 2.2273864462968837e-01  0.0000000000000000e+00 8.8228739303215886e-01 2.2093363646492664e-01  0.0000000000000000e+00 8.8320430892944235e-01 2.1919844882254269e-01  0.0000000000000000e+00 8.8408029759411155e-01 2.1753827349375482e-01  0.0000000000000000e+00 8.8493191694609452e-01 2.1592210197729175e-01  0.0000000000000000e+00 8.8577456751845529e-01 2.1432102968029895e-01  0.0000000000000000e+00 8.8654350729604003e-01 2.1285757132467484e-01  0.0000000000000000e+00 8.8730503308245035e-01 2.1140665489187416e-01  0.0000000000000000e+00 8.8803848306132271e-01 2.1000749748886802e-01  0.0000000000000000e+00 8.8876027736146912e-01 2.0862905819911326e-01  0.0000000000000000e+00 8.8946258695158764e-01 2.0728631823031587e-01  0.0000000000000000e+00 8.9012257943524520e-01 2.0602281545979076e-01  0.0000000000000000e+00 8.9076437032593903e-01 2.0479284097762115e-01  0.0000000000000000e+00 8.9138716310404797e-01 2.0359802893252493e-01  0.0000000000000000e+00 8.9198064586196502e-01 2.0245817867225721e-01  0.0000000000000000e+00 8.9254865835187636e-01 2.0136608646335796e-01  0.0000000000000000e+00 8.9309408164560888e-01 2.0031637496503565e-01  0.0000000000000000e+00 8.9360915372378846e-01 1.9932405019344948e-01  0.0000000000000000e+00 8.9410217887886989e-01 1.9837332880731531e-01  0.0000000000000000e+00 8.9457638203904422e-01 1.9745817849096886e-01  0.0000000000000000e+00 8.9500134861338454e-01 1.9663699933034420e-01  0.0000000000000000e+00 8.9543117601359035e-01 1.9580615070119561e-01  0.0000000000000000e+00 8.9579299619139441e-01 1.9510565540247002e-01  0.0000000000000000e+00 8.9615673557568754e-01 1.9440132565758889e-01  0.0000000000000000e+00 8.9648987096808574e-01 1.9375573072913657e-01  0.0000000000000000e+00 8.9679998208580436e-01 1.9315439734493886e-01  0.0000000000000000e+00 8.9707477483384901e-01 1.9262109686693504e-01  0.0000000000000000e+00 8.9734545531643151e-01 1.9209578304678041e-01  0.0000000000000000e+00 8.9753647341372322e-01 1.9172413327265508e-01  0.0000000000000000e+00 8.9774223884331195e-01 1.9132429059983819e-01  0.0000000000000000e+00 8.9791481409257701e-01 1.9098868443535352e-01  0.0000000000000000e+00 8.9818782607912462e-01 1.9045753401668478e-01  0.0000000000000000e+00 8.9829181537394809e-01 1.9025521253447528e-01  0.0000000000000000e+00 8.9836826855960683e-01 1.9010640956060537e-01  0.0000000000000000e+00 8.9841114816232948e-01 1.9002280970162475e-01  0.0000000000000000e+00 8.9842276955171452e-01 1.8999994895722330e-01  0.0000000000000000e+00 8.9844100806910709e-01 1.8996468444116099e-01  0.0000000000000000e+00 8.9840267386750505e-01 1.9003907202397916e-01  0.0000000000000000e+00 8.9837304048219035e-01 1.9009703625651436e-01  0.0000000000000000e+00 8.9829253693145850e-01 1.9025356987416547e-01  0.0000000000000000e+00 8.9819759717503334e-01 1.9043831893326824e-01  0.0000000000000000e+00 8.9808076942051840e-01 1.9066563392894470e-01  0.0000000000000000e+00 8.9793814243771952e-01 1.9094304896992470e-01  0.0000000000000000e+00 8.9777048363001388e-01 1.9126901644191810e-01  0.0000000000000000e+00 8.9758590425442397e-01 1.9162785691462189e-01  0.0000000000000000e+00 8.9738100069266957e-01 1.9202607879943931e-01  0.0000000000000000e+00 8.9714327678171601e-01 1.9248767690559987e-01  0.0000000000000000e+00 8.9688981510925514e-01 1.9297969501797355e-01  0.0000000000000000e+00 8.9660610314517875e-01 1.9352999852680935e-01  0.0000000000000000e+00 8.9628700968022101e-01 1.9414835907633191e-01  0.0000000000000000e+00 8.9596846485545578e-01 1.9476558611044975e-01  0.0000000000