<?xml version="1.0"?>
<VTKFile type="UnstructuredGrid"  version="0.1"  >
<UnstructuredGrid>
<Piece  NumberOfPoints="25605" NumberOfCells="50684">
<Points>
<DataArray  type="Float64"  NumberOfComponents="3"  format="ascii">500 250 0  0 250 0  250 500 0  250 0 0  252.9976310880008 499.9820277697183 0  255.994831180465 499.9281136629446 0  258.9911693467 499.8382654314166 0  261.9862147844171 499.7124959931758 0  264.9795368730259 499.550823430959 0  267.9707052380909 499.3532709896657 0  270.9592898147818 499.1198670729815 0  273.944860911003 498.850645239173 0  276.9269892620302 498.5456441969613 0  279.9052461102784 498.204907798141 0  282.879203246639 497.8284850332306 0  285.8484330760252 497.4164300243493 0  288.812508703066 496.9688020138868 0  291.7710039592635 496.4856653605544 0  294.7234934645729 495.9670895309458 0  297.6695527219374 495.4131490839284 0  300.6087581526373 494.8239236640241 0  303.5406871632312 494.1994979890193 0  306.4649182085955 493.5399618372653 0  309.3810308492501 492.8454100354388 0  312.2886058121011 492.1159424449053 0  315.1872250543244 491.3516639464432 0  318.0764718164482 490.552684426976 0  320.9559306911491 489.7191187614222 0  323.8251876776197 488.8510867975364 0  326.6838302398962 487.9487133391117 0  329.5314473625203 487.0121281293906 0  332.3676296259557 486.0414658270902 0  335.1919692490408 485.0368659922747 0  338.0040601519906 483.9984730650284 0  340.8034980252745 482.926436340691 0  343.5898803648273 481.8209099570125 0  346.3628065522297 480.6820528636277 0  349.1218779058009 479.5100288014175 0  351.866697726272 478.3050062840155 0  354.5968713702315 477.0671585667096 0  357.3120063039883 475.7966636224122 0  360.0117121560444 474.4937041177227 0  362.6956007624657 473.158467392091 0  365.3632862410136 471.7911454221605 0  368.0143850392318 470.39193479756 0  370.6485159774368 468.9610366993228 0  373.2653003309281 467.4986568563726 0  375.8643618621848 466.0050055277077 0  378.4453268904447 464.4802974634425 0  381.0078243277097 462.9247518841339 0  383.5514857466806 461.3385924407896 0  386.0759454147861 459.7220471945478 0  388.5808403686633 458.0753485704519 0  391.0658104727646 456.398733318938 0  393.5304984398443 454.6924425024281 0  395.9745499014433 452.9567214483695 0  398.3976134594079 451.1918197133078 0  400.7993407313268 449.3979910505549 0  403.1793863983767 447.5754933756127 0  405.5374082633365 445.7245887228382 0  407.8730672875487 443.8455432173283 0  410.1860276678057 441.9386270139729 0  412.4759568502628 440.0041142859584 0  414.7425255888164 438.0422831775295 0  416.9854079982472 436.0534157591817 0  419.2042816111551 434.0377979776246 0  421.3988273934515 431.9957196423856 0  423.5687298230711 429.9274743545459 0  425.7136769203488 427.833359477718 0  427.8333602660664 425.7136761224903 0  429.9274751166117 423.5687290330868 0  431.9957203865596 421.3988266032683 0  434.0377986976932 419.2042808279605 0  436.0534164531565 416.9854072250276 0  438.0422838486247 414.7425248228072 0  440.0041149354581 412.4759560907189 0  441.9386276454979 410.1860269110977 0  443.8455438341414 407.8730665301906 0  445.7245893245478 405.5374075061595 0  447.5754939498422 403.1793856577179 0  449.3979916037435 400.7993399998601 0  451.1918202566634 398.3976127227471 0  452.9567219786559 395.9745491641559 0  454.6924430171686 393.53049770576 0  456.3987338202434 391.0658097392857 0  458.0753490553683 388.5808396405746 0  459.7220476673142 386.0759446861523 0  461.3385928978555 383.5514850233965 0  462.924752323721 381.0078236132563 0  464.4802978831972 378.4453261895309 0  466.005005928237 375.8643611748071 0  467.4986572464557 373.2652996426359 0  468.9610370690891 370.64851530636 0  470.3919351512159 368.0143843787793 0  471.7911457549822 365.363285601149 0  473.1584677051019 362.6956001426453 0  474.4937044170927 360.0117115451396 0  475.7966639080153 357.3120057030471 0  477.0671588375024 354.5968707823731 0  478.3050065468899 351.8666971371142 0  479.5100290514928 349.1218773267684 0  480.68205310082 346.3628059844174 0  481.8209101826405 343.5898798059497 0  482.926436550004 340.8034974883511 0  483.9984732613996 338.0040596298491 0  485.0368661774559 335.1919687381426 0  486.0414660017697 332.3676291253755 0  487.0121282892932 329.5314468859938 0  487.9487134870012 326.6838297809975 0  488.8510869337421 323.825187236945 0  489.7191188882317 320.9559302627332 0  490.5526845449373 318.0764713996244 0  491.3516640573307 315.1872246437704 0  492.1159425458163 312.2886054198597 0  492.8454101279934 309.3810304707378 0  493.5399619220304 306.4649178429931 0  494.1994980644915 303.5406868190015 0  494.8239237308971 300.6087578291331 0  495.4131491423161 297.6695524213444 0  495.9670895813101 294.7234931875826 0  496.4856654030534 291.7710037084818 0  496.9688020494549 288.8125084767419 0  497.416430053242 285.8484328766153 0  497.8284850586459 282.8792030550702 0  498.2049078189591 279.9052459374942 0  498.5456442137286 276.9269891072627 0  498.850645253019 273.9448607671062 0  499.1198670835989 270.9592896885852 0  499.3532709967772 267.9707051394148 0  499.5508234355897 264.9795367958812 0  499.7124959959075 261.9862147275054 0  499.8382654331632 258.9911692981657 0  499.928113663985 255.99483113709 0  499.9820277699785 252.9976310663071 0  499.9820277697257 247.0023689126091 0  499.9281136630343 244.0051688232745 0  499.8382654314717 241.0088306548307 0  499.7124959931211 238.0137852144455 0  499.5508234310553 235.0204631285785 0  499.3532709900699 232.0292947675166 0  499.119867073792 229.0407101948513 0  498.8506452406773 226.0551391046306 0  498.5456441987692 223.0730107546571 0  498.2049078002218 220.0947539069917 0  497.8284850356648 217.120796771709 0  497.4164300267099 214.151566940267 0  496.968802017216 211.187491318118 0  496.4856653659872 208.2289960727951 0  495.9670895372035 205.2765065698432 0  495.4131490907147 202.330447313 0  494.8239236713522 199.3912418828135 0  494.1994979969027 196.4593128727251 0  493.5399618460726 193.5350818293917 0  492.8454100458835 190.6189691934644 0  492.1159424557956 187.7113942302294 0  491.3516639574156 184.8127749862999 0  490.5526844387521 181.923528225163 0  489.7191187738694 179.0440693509028 0  488.851086810667 176.1748123648628 0  487.948713352938 173.3161698030064 0  487.0121281439243 170.4685526807917 0  486.0414658415049 167.6323704153526 0  485.0368660060558 164.8080307889799 0  483.9984730779887 161.9959398824702 0  482.9264363544502 159.1965020100202 0  481.8209099702043 156.4101196678486 0  480.6820528745703 153.6371934739656 0  479.5100288124721 150.8781221197951 0  478.3050062927852 148.1333022933829 0  477.0671585723666 145.403128642049 0  475.796663627405 142.687993706517 0  474.4937041236649 139.9882878560814 0  473.1584673984938 137.3043992502131 0  471.7911454319914 134.6367137778867 0  470.3919348096422 131.9856149833316 0  468.9610367113798 129.3514840444451 0  467.49865687022 126.7346996935054 0  466.0050055427385 124.1356381636107 0  464.4802974781252 121.5546731340727 0  462.9247519005733 118.992175699009 0  461.3385924615702 116.4485142862037 0  459.722047215144 113.924054616957 0  458.0753485880027 111.4191596576888 0  456.3987333337139 108.9341895488548 0  454.692442514023 106.4695015766915 0  452.95672145825 104.0254501122942 0  451.1918197247282 101.6023865560754 0  449.3979910627008 99.20065928473332 0  447.5754933882043 96.82061361786421 0  445.7245887341124 94.46259175085058 0  443.8455432269008 92.12693272420489 0  441.9386270210269 89.81397234064673 0  440.0041142971544 87.52404316283014 0  438.0422831897421 85.25747442512349 0  436.0534157701649 83.01459201399018 0  434.0377979907771 80.79571840315057 0  431.9957196541004 78.60117261898753 0  429.9274743620823 76.43127018474144 0  427.8333594859367 74.28632308796901 0  425.7136761283247 72.16663973969838 0  423.5687290359737 70.07252488617331 0  421.3988265987173 68.00427960915448 0  419.2042808240311 65.962201298694 0  416.9854072196475 63.94658354201471 0  414.742524818212 61.95771614734943 0  412.4759560828471 59.99588505781063 0  410.1860269003736 58.06137234555209 0  407.8730665183855 56.15445615624427 0  405.5374074948106 54.27541066643354 0  403.1793856410161 52.424506037209 0  400.7993399855741 50.60200838545225 0  398.3976127114923 48.80817973503514 0  395.9745491514178 47.04327801218227 0  393.5304976958927 45.30755697591243 0  391.0658097308475 43.60126617398947 0  388.5808396359472 41.92465094154986 0  386.0759446832285 40.27795233078868 0  383.5514850239504 38.66140710249451 0  381.007823619977 37.07524768041412 0  378.4453262000283 35.51970212308933 0  375.8643611921311 33.99499408185753 0  373.2652996617874 32.50134276439832 0  370.6485153256615 31.03896294154612 0  368.0143843882092 29.60806485383361 0  365.3632855907917 28.2088542396306 0  362.6956001322776 26.84153228966238 0  360.0117115354126 25.50629557814059 0  357.3120057003284 24.20333609069269 0  354.596870775138 22.93284115916481 0  351.8666971306181 21.69499345021163 0  349.121877320111 20.48997094563194 0  346.3628059771881 19.31794689616012 0  343.5898798100648 18.17908981902079 0  340.8034974914794 17.07356345121562 0  338.0040596332272 16.00152673987083 0  335.1919687416658 14.9631338238211 0  332.3676291322006 13.95853400061199 0  329.5314468917599 12.98787171264172 0  326.6838297822748 12.05128651341042 0  323.8251872378164 11.14891306652726 0  320.9559302656854 10.28088111264219 0  318.076471404611 9.447315456473888 0  315.1872246503818 8.648335944454999 0  312.2886054290304 7.88405745654299 0  309.3810304838133 7.154589875203868 0  306.4649178487239 6.460038079298243 0  303.5406868253978 5.800501936910877 0  300.6087578339258 5.176076270093546 0  297.669552426172 4.586850858621602 0  294.7234931936628 4.0329104197954 0  291.7710037123022 3.514334597594029 0  288.8125084726372 3.031197949900047 0  285.8484328697872 2.58356994576863 0  282.8792030484304 2.171514940473202 0  279.905245932244 1.795092180408318 0  276.9269891008954 1.454
[...]
<PointData  Vectors="f_12"> 
<DataArray  type="Float64"  Name="f_12"  NumberOfComponents="3" format="ascii">0.0000000000000000e+00 4.0459316125832501e-01 9.0548306218381602e-01  0.0000000000000000e+00 6.6812912565610760e-01 5.8070330920890012e-01  0.0000000000000000e+00 1.5342631880662174e-02 2.4441351188602686e-01  0.0000000000000000e+00 8.9884698336848123e-01 1.8917121668278764e-01  0.0000000000000000e+00 1.5347075121441900e-02 2.4330271305099307e-01  0.0000000000000000e+00 1.5351297468408050e-02 2.4227167734845631e-01  0.0000000000000000e+00 1.5354907779335750e-02 2.4143673247799846e-01  0.0000000000000000e+00 1.5357908938437774e-02 2.4079361182600337e-01  0.0000000000000000e+00 1.5360199733987896e-02 2.4030369002210578e-01  0.0000000000000000e+00 1.5361900267777139e-02 2.3993847097372833e-01  0.0000000000000000e+00 1.5362876829657288e-02 2.3973055059690490e-01  0.0000000000000000e+00 1.5363202924098757e-02 2.3965648436436829e-01  0.0000000000000000e+00 1.5362820879673332e-02 2.3972159262885065e-01  0.0000000000000000e+00 1.5361743113177232e-02 2.3993260959272725e-01  0.0000000000000000e+00 1.5360089417837314e-02 2.4026873892796599e-01  0.0000000000000000e+00 1.5357618870789425e-02 2.4079453465283088e-01  0.0000000000000000e+00 1.5354661869931842e-02 2.4144084944692926e-01  0.0000000000000000e+00 1.5351235189954376e-02 2.4220017151215112e-01  0.0000000000000000e+00 1.5347229949273816e-02 2.4312271874751706e-01  0.0000000000000000e+00 1.5342865892929084e-02 2.4419138684878441e-01  0.0000000000000000e+00 1.5338198914984114e-02 2.4540178643166644e-01  0.0000000000000000e+00 1.5333380812034472e-02 2.4672516682723836e-01  0.0000000000000000e+00 1.5328596821575332e-02 2.4816569056362328e-01  0.0000000000000000e+00 1.5323612649444223e-02 2.4982646881814125e-01  0.0000000000000000e+00 1.5318822763673684e-02 2.5163737371230366e-01  0.0000000000000000e+00 1.5314508200157034e-02 2.5353344391348415e-01  0.0000000000000000e+00 1.5310585269602160e-02 2.5558104563716744e-01  0.0000000000000000e+00 1.5307208152366830e-02 2.5781400051572190e-01  0.0000000000000000e+00 1.5304601868221218e-02 2.6019553890089298e-01  0.0000000000000000e+00 1.5303097984728722e-02 2.6272175429925027e-01  0.0000000000000000e+00 1.5302928142355902e-02 2.6539920057702210e-01  0.0000000000000000e+00 1.5303855608513146e-02 2.6824120352853165e-01  0.0000000000000000e+00 1.5306420295921235e-02 2.7121522753366550e-01  0.0000000000000000e+00 1.5310912547503474e-02 2.7433735742892734e-01  0.0000000000000000e+00 1.5317672682551577e-02 2.7767353152573959e-01  0.0000000000000000e+00 1.5326777964585167e-02 2.8115064771729087e-01  0.0000000000000000e+00 1.5338202579397581e-02 2.8473889976966527e-01  0.0000000000000000e+00 1.5352470075347052e-02 2.8846989168067416e-01  0.0000000000000000e+00 1.5369836975942817e-02 2.9235596504168831e-01  0.0000000000000000e+00 1.5390612815261875e-02 2.9642615776166648e-01  0.0000000000000000e+00 1.5414218226504081e-02 3.0051743790838070e-01  0.0000000000000000e+00 1.5443317238169219e-02 3.0497173660917259e-01  0.0000000000000000e+00 1.5475620089135758e-02 3.0943229022764440e-01  0.0000000000000000e+00 1.5512365181356335e-02 3.1406408183019957e-01  0.0000000000000000e+00 1.5553888370722390e-02 3.1884614737216999e-01  0.0000000000000000e+00 1.5600570128459444e-02 3.2378072809354458e-01  0.0000000000000000e+00 1.5652699644617199e-02 3.2889184915207509e-01  0.0000000000000000e+00 1.5710780278121853e-02 3.3417347538694192e-01  0.0000000000000000e+00 1.5775392573165677e-02 3.3964306104009684e-01  0.0000000000000000e+00 1.5846945489327482e-02 3.4533873615893118e-01  0.0000000000000000e+00 1.5926327864515366e-02 3.5123064639255130e-01  0.0000000000000000e+00 1.6014142875453670e-02 3.5738530998403201e-01  0.0000000000000000e+00 1.6111341497941176e-02 3.6379510998141507e-01  0.0000000000000000e+00 1.6219109554895316e-02 3.7050423424639845e-01  0.0000000000000000e+00 1.6337069819764849e-02 3.7745611645932653e-01  0.0000000000000000e+00 1.6467629778613213e-02 3.8470947172715109e-01  0.0000000000000000e+00 1.6612385113387983e-02 3.9236022291939626e-01  0.0000000000000000e+00 1.6771110422395277e-02 4.0028288911736432e-01  0.0000000000000000e+00 1.6943730536429037e-02 4.0844429720911979e-01  0.0000000000000000e+00 1.7133706397083594e-02 4.1695072301680886e-01  0.0000000000000000e+00 1.7343108574297345e-02 4.2583378744471756e-01  0.0000000000000000e+00 1.7571204588610983e-02 4.3498496478964110e-01  0.0000000000000000e+00 1.7818968267874546e-02 4.4438870406907321e-01  0.0000000000000000e+00 1.8087270715659451e-02 4.5401997809646377e-01  0.0000000000000000e+00 1.8379088982756586e-02 4.6392551730476900e-01  0.0000000000000000e+00 1.8690558038613331e-02 4.7395522142481555e-01  0.0000000000000000e+00 1.9033460094400087e-02 4.8434265904876195e-01  0.0000000000000000e+00 1.9399631228395976e-02 4.9485905317217754e-01  0.0000000000000000e+00 1.9794528207815527e-02 5.0558209916963726e-01  0.0000000000000000e+00 2.0225484392509981e-02 5.1662673753618493e-01  0.0000000000000000e+00 2.0697361495586760e-02 5.2805467370352099e-01  0.0000000000000000e+00 2.1208207719045143e-02 5.3973104569367347e-01  0.0000000000000000e+00 2.1763710979363440e-02 5.5169460443394847e-01  0.0000000000000000e+00 2.2375906347336025e-02 5.6411747175655247e-01  0.0000000000000000e+00 2.3052703697734749e-02 5.7703128481623567e-01  0.0000000000000000e+00 2.3796654805193180e-02 5.9033044775781418e-01  0.0000000000000000e+00 2.4615207769849965e-02 6.0403807397835796e-01  0.0000000000000000e+00 2.5517941915323236e-02 6.1813238604886567e-01  0.0000000000000000e+00 2.6510892643764713e-02 6.3258681340329226e-01  0.0000000000000000e+00 2.7598038490254620e-02 6.4728503215839361e-01  0.0000000000000000e+00 2.8784446226031643e-02 6.6213809335739693e-01  0.0000000000000000e+00 3.0083483596499552e-02 6.7718549379231330e-01  0.0000000000000000e+00 3.1498459581797505e-02 6.9231736745132377e-01  0.0000000000000000e+00 3.3030901232069407e-02 7.0740969708954082e-01  0.0000000000000000e+00 3.4694657903757316e-02 7.2248003342215372e-01  0.0000000000000000e+00 3.6499979128972002e-02 7.3752739814824031e-01  0.0000000000000000e+00 3.8452565534571048e-02 7.5245374189759251e-01  0.0000000000000000e+00 4.0586489723931377e-02 7.6740006679854345e-01  0.0000000000000000e+00 4.2919695562880743e-02 7.8236767295932408e-01  0.0000000000000000e+00 4.5464730543715005e-02 7.9726980638676215e-01  0.0000000000000000e+00 4.8249633511995710e-02 8.1213665777014676e-01  0.0000000000000000e+00 5.1291801844112188e-02 8.2691341064426660e-01  0.0000000000000000e+00 5.4609913563826752e-02 8.4153869045067675e-01  0.0000000000000000e+00 5.8236947867798448e-02 8.5601389065930333e-01  0.0000000000000000e+00 6.2139673361086244e-02 8.7009053231654498e-01  0.0000000000000000e+00 6.6341281624780493e-02 8.8375603991718177e-01  0.0000000000000000e+00 7.0823409047797006e-02 8.9689106945532793e-01  0.0000000000000000e+00 7.5571884404256842e-02 9.0939165890223184e-01  0.0000000000000000e+00 8.0599533526709691e-02 9.2128207620494273e-01  0.0000000000000000e+00 8.5884435388837194e-02 9.3247372420482333e-01  0.0000000000000000e+00 9.1417020893728634e-02 9.4295432630314102e-01  0.0000000000000000e+00 9.7254644275107507e-02 9.5280333646797100e-01  0.0000000000000000e+00 1.0336504309971439e-01 9.6197018075030283e-01  0.0000000000000000e+00 1.0978666953737891e-01 9.7047907277669065e-01  0.0000000000000000e+00 1.1656244432640987e-01 9.7836018303670613e-01  0.0000000000000000e+00 1.2368319172199425e-01 9.8556172672260822e-01  0.0000000000000000e+00 1.3114749273657089e-01 9.9206157264989292e-01  0.0000000000000000e+00 1.3893888957937800e-01 9.9782086610064180e-01  0.0000000000000000e+00 1.4703578261456046e-01 1.0028120285356756e+00  0.0000000000000000e+00 1.5540116922132297e-01 1.0070130862413500e+00  0.0000000000000000e+00 1.6395818206901233e-01 1.0104027735292644e+00  0.0000000000000000e+00 1.7272037092086689e-01 1.0130081874900552e+00  0.0000000000000000e+00 1.8163444003566059e-01 1.0148458383518908e+00  0.0000000000000000e+00 1.9066127352409110e-01 1.0159396263353666e+00  0.0000000000000000e+00 1.9982004252210961e-01 1.0163243015169072e+00  0.0000000000000000e+00 2.0914382648515720e-01 1.0160272934533172e+00  0.0000000000000000e+00 2.1864839300061251e-01 1.0150586063310443e+00  0.0000000000000000e+00 2.2834523229594289e-01 1.0134303656795063e+00  0.0000000000000000e+00 2.3824544039214487e-01 1.0111495034052880e+00  0.0000000000000000e+00 2.4840889373975716e-01 1.0081886943221736e+00  0.0000000000000000e+00 2.5872736769888532e-01 1.0046056403895858e+00  0.0000000000000000e+00 2.6914933781663536e-01 1.0004112098207729e+00  0.0000000000000000e+00 2.7963157990605514e-01 9.9565239418655960e-01  0.0000000000000000e+00 2.9017358077418481e-01 9.9034520005920512e-01  0.0000000000000000e+00 3.0067794062217240e-01 9.8457363728195746e-01  0.0000000000000000e+00 3.1111505986914068e-01 9.7837583816253415e-01  0.0000000000000000e+00 3.2149531082558552e-01 9.7178018188654547e-01  0.0000000000000000e+00 3.3181324742490881e-01 9.6481658110308477e-01  0.0000000000000000e+00 3.4211689902838571e-01 9.5747434048396207e-01  0.0000000000000000e+00 3.5243538987650003e-01 9.4974944268784633e-01  0.0000000000000000e+00 3.6279558917533450e-01 9.4163269590411958e-01  0.0000000000000000e+00 3.7320729034181471e-01 9.3312607244525014e-01  0.0000000000000000e+00 3.8366516604115819e-01 9.2424134929263368e-01  0.0000000000000000e+00 3.9414296610070831e-01 9.1500932330775209e-01  0.0000000000000000e+00 4.1496172031959977e-01 8.9572626813655731e-01  0.0000000000000000e+00 4.2519701768529966e-01 8.8580617403597894e-01  0.0000000000000000e+00 4.3527719566229617e-01 8.7576267941151276e-01  0.0000000000000000e+00 4.4517312921575442e-01 8.6564667502698944e-01  0.0000000000000000e+00 4.5490134751851791e-01 8.5546044200112503e-01  0.0000000000000000e+00 4.6449055673862077e-01 8.4519108358626727e-01  0.0000000000000000e+00 4.7396753463289654e-01 8.3482413591499971e-01  0.0000000000000000e+00 4.8336714521331453e-01 8.2433274095950970e-01  0.0000000000000000e+00 4.9273337840334092e-01 8.1367489742928445e-01  0.0000000000000000e+00 5.0204076557811916e-01 8.0288932283203973e-01  0.0000000000000000e+00 5.1133278925337566e-01 7.9192625021650120e-01  0.0000000000000000e+00 5.2051888939889601e-01 7.8090661239994241e-01  0.0000000000000000e+00 5.2959123794983398e-01 7.6984470491341883e-01  0.0000000000000000e+00 5.3850733391999872e-01 7.5880382320325845e-01  0.0000000000000000e+00 5.4723546342846707e-01 7.4783570734703131e-01  0.0000000000000000e+00 5.5573889918010755e-01 7.3699861013272294e-01  0.0000000000000000e+00 5.6405792955453615e-01 7.2625574034567830e-01  0.0000000000000000e+00 5.7218811463826380e-01 7.1562312127547245e-01  0.0000000000000000e+00 5.8017010182801532e-01 7.0505719760257191e-01  0.0000000000000000e+00 5.8801989861007620e-01 6.9454566900800496e-01  0.0000000000000000e+00 5.9578262615475885e-01 6.8403421033793521e-01  0.0000000000000000e+00 6.0347376723863422e-01 6.7350652240268749e-01  0.0000000000000000e+00 6.1108398023319566e-01 6.6297998835196059e-01  0.0000000000000000e+00 6.1860407640323434e-01 6.5247194866672509e-01  0.0000000000000000e+00 6.2600949248067639e-01 6.4202201276392923e-01  0.0000000000000000e+00 6.3327731800413356e-01 6.3166833975053660e-01  0.0000000000000000e+00 6.4036602251224173e-01 6.2147689729597722e-01  0.0000000000000000e+00 6.4727776801561665e-01 6.1145245942534343e-01  0.0000000000000000e+00 6.5399288422376833e-01 6.0163118061731413e-01  0.0000000000000000e+00 6.6052682902367799e-01 5.9199728438326749e-01  0.0000000000000000e+00 6.6689617223593689e-01 5.8253330739403153e-01  0.0000000000000000e+00 6.7311927965900720e-01 5.7321742034788226e-01  0.0000000000000000e+00 6.7922739842761781e-01 5.6400770118075050e-01  0.0000000000000000e+00 6.8524521697384333e-01 5.5487061675944593e-01  0.0000000000000000e+00 6.9118375835179935e-01 5.4579254679402855e-01  0.0000000000000000e+00 6.9704764987691670e-01 5.3676889390282445e-01  0.0000000000000000e+00 7.0282899757009398e-01 5.2781478358467004e-01  0.0000000000000000e+00 7.0850930770310006e-01 5.1896111162727321e-01  0.0000000000000000e+00 7.1406237613416457e-01 5.1025278684569231e-01  0.0000000000000000e+00 7.1948180767406045e-01 5.0170349294113681e-01  0.0000000000000000e+00 7.2473683584824244e-01 4.9336566491020167e-01  0.0000000000000000e+00 7.2983059433431952e-01 4.8523886778430736e-01  0.0000000000000000e+00 7.3476337251391854e-01 4.7732663074552534e-01  0.0000000000000000e+00 7.3955369034074214e-01 4.6960350484342173e-01  0.0000000000000000e+00 7.4421789811069206e-01 4.6204645634284414e-01  0.0000000000000000e+00 7.4877141006138548e-01 4.5463310732724155e-01  0.0000000000000000e+00 7.5323392120011579e-01 4.4733404953001715e-01  0.0000000000000000e+00 7.5763405396481698e-01 4.4010448222637710e-01  0.0000000000000000e+00 7.6196293539217375e-01 4.3296007078619564e-01  0.0000000000000000e+00 7.6623105138972891e-01 4.2588529600821429e-01  0.0000000000000000e+00 7.7042580978816710e-01 4.1890223881971694e-01  0.0000000000000000e+00 7.7453837907708190e-01 4.1202737172343551e-01  0.0000000000000000e+00 7.7856641775806246e-01 4.0526598024225191e-01  0.0000000000000000e+00 7.8247740512573660e-01 3.9867477785370647e-01  0.0000000000000000e+00 7.8626364601511234e-01 3.9226884151020031e-01  0.0000000000000000e+00 7.8993408347833682e-01 3.8603544127044165e-01  0.0000000000000000e+00 7.9346897428723928e-01 3.8001002206474349e-01  0.0000000000000000e+00 7.9688703520759863e-01 3.7416314893402869e-01  0.0000000000000000e+00 8.0020080980931874e-01 3.6847517999674312e-01  0.0000000000000000e+00 8.0342645977433147e-01 3.6292003490549912e-01  0.0000000000000000e+00 8.0656794461245485e-01 3.5749236340206159e-01  0.0000000000000000e+00 8.0963600167011462e-01 3.5217486398748810e-01  0.0000000000000000e+00 8.1265253462195775e-01 3.4693058004819943e-01  0.0000000000000000e+00 8.1562517268726964e-01 3.4174697315970176e-01  0.0000000000000000e+00 8.1855073798830169e-01 3.3663025256929463e-01  0.0000000000000000e+00 8.2142692639985082e-01 3.3158509773177886e-01  0.0000000000000000e+00 8.2424479788320792e-01 3.2662783624622721e-01  0.0000000000000000e+00 8.2700086998476174e-01 3.2176534820757008e-01  0.0000000000000000e+00 8.2969118619451387e-01 3.1700537834685982e-01  0.0000000000000000e+00 8.3229027985659165e-01 3.1239393548711597e-01  0.0000000000000000e+00 8.3479429019643403e-01 3.0793906955898559e-01  0.0000000000000000e+00 8.3722090464052223e-01 3.0361032832419005e-01  0.0000000000000000e+00 8.3956952392111694e-01 2.9940978699480608e-01  0.0000000000000000e+00 8.4182137990153993e-01 2.9537197935834197e-01  0.0000000000000000e+00 8.4398531662198106e-01 2.9148215232454866e-01  0.0000000000000000e+00 8.4608231718768501e-01 2.8770359241793353e-01  0.0000000000000000e+00 8.4811336226532286e-01 2.8403531479438476e-01  0.0000000000000000e+00 8.5008788463584162e-01 2.8046099785703782e-01  0.0000000000000000e+00 8.5201159015997963e-01 2.7697090807918445e-01  0.0000000000000000e+00 8.5389013960378635e-01 2.7355530965623920e-01  0.0000000000000000e+00 8.5573262271336448e-01 2.7019812613436844e-01  0.0000000000000000e+00 8.5754140769779119e-01 2.6689540268156281e-01  0.0000000000000000e+00 8.5931585131867616e-01 2.6364861043869348e-01  0.0000000000000000e+00 8.6105527098926860e-01 2.6045929562420339e-01  0.0000000000000000e+00 8.6275728388623651e-01 2.5733210821861091e-01  0.0000000000000000e+00 8.6441896020353326e-01 2.5427274458549853e-01  0.0000000000000000e+00 8.6603672238452079e-01 2.5128811418072799e-01  0.0000000000000000e+00 8.6760742361300969e-01 2.4838438379304148e-01  0.0000000000000000e+00 8.6912729542411737e-01 2.4556891780253232e-01  0.0000000000000000e+00 8.7059364281765483e-01 2.4284713925669918e-01  0.0000000000000000e+00 8.7200531054175989e-01 2.4022164930505843e-01  0.0000000000000000e+00 8.7336112293334811e-01 2.3769510621463730e-01  0.0000000000000000e+00 8.7466234846867563e-01 2.3526562620865096e-01  0.0000000000000000e+00 8.7590954876531890e-01 2.3293263168548309e-01  0.0000000000000000e+00 8.7710481228173331e-01 2.3069268761296466e-01  0.0000000000000000e+00 8.7825103113084579e-01 2.2854081894113601e-01  0.0000000000000000e+00 8.7935003585020322e-01 2.2647401387599825e-01  0.0000000000000000e+00 8.8040234010572938e-01 2.2449173009725004e-01  0.0000000000000000e+00 8.8141771814259495e-01 2.2257591708543129e-01  0.0000000000000000e+00 8.8240094681857362e-01 2.2071788515672869e-01  0.0000000000000000e+00 8.8334551585015642e-01 2.1893015885112832e-01  0.0000000000000000e+00 8.8425652172018232e-01 2.1720338108027221e-01  0.0000000000000000e+00 8.8513006172264275e-01 2.1554518131640929e-01  0.0000000000000000e+00 8.8598163737613556e-01 2.1392647604376186e-01  0.0000000000000000e+00 8.8682566938072915e-01 2.1232015901528892e-01  0.0000000000000000e+00 8.8759596144919017e-01 2.1085166316514878e-01  0.0000000000000000e+00 8.8835858504952847e-01 2.0939617332291027e-01  0.0000000000000000e+00 8.8909201666286830e-01 2.0799460369841538e-01  0.0000000000000000e+00 8.8981243558112844e-01 2.0661633607445148e-01  0.0000000000000000e+00 8.9051156755614413e-01 2.0527723382058738e-01  0.0000000000000000e+00 8.9116613916482024e-01 2.0402175573190542e-01  0.0000000000000000e+00 8.9180044290182547e-01 2.0280380273609036e-01  0.0000000000000000e+00 8.9241376040493048e-01 2.0162487885473351e-01  0.0000000000000000e+00 8.9299587738643682e-01 2.0050464279860530e-01  0.0000000000000000e+00 8.9355079885885924e-01 1.9943557427664133e-01  0.0000000000000000e+00 8.9408167511938397e-01 1.9841178285726016e-01  0.0000000000000000e+00 8.9458114132802591e-01 1.9744754831012873e-01  0.0000000000000000e+00 8.9505771070424289e-01 1.9652666437994915e-01  0.0000000000000000e+00 8.9551489471459822e-01 1.9564254044606827e-01  0.0000000000000000e+00 8.9592293208798368e-01 1.9485242525065055e-01  0.0000000000000000e+00 8.9633529026143899e-01 1.9405370442844166e-01  0.0000000000000000e+00 8.9668088912254496e-01 1.9338321069748712e-01  0.0000000000000000e+00 8.9702827222129977e-01 1.9270916963442433e-01  0.0000000000000000e+00 8.9734585238608633e-01 1.9209245746747633e-01  0.0000000000000000e+00 8.9764113957371727e-01 1.9151870346958472e-01  0.0000000000000000e+00 8.9790237034654707e-01 1.9101069198269474e-01  0.0000000000000000e+00 8.9815972450318504e-01 1.9051024297321961e-01  0.0000000000000000e+00 8.9834053208386533e-01 1.9015773355438717e-01  0.0000000000000000e+00 8.9853578089679687e-01 1.8977757487869495e-01  0.0000000000000000e+00 8.9869933852472383e-01 1.8945887534480019e-01  0.0000000000000000e+00 8.9895783628408155e-01 1.8895497625885535e-01  0.0000000000000000e+00 8.9905620460442526e-01 1.8876322036341853e-01  0.0000000000000000e+00 8.9912837858314565e-01 1.8862247444527391e-01  0.0000000000000000e+00 8.9916859170060293e-01 1.8854391771396700e-01  0.0000000000000000e+00 8.9917905924022301e-01 1.8852327073497910e-01  0.0000000000000000e+00 8.9919597867602452e-01 1.8849050371982398e-01  0.0000000000000000e+00 8.9915895915875788e-01 1.8856247773442292e-01  0.0000000000000000e+00 8.9913038220389163e-01 1.8861848464726882e-01  0.0000000000000000e+00 8.9905324992266133e-01 1.8876875020690961e-01  0.0000000000000000e+00 8.9896241728231130e-01 1.8894584824187932e-01  0.0000000000000000e+00 8.9885071925714755e-01 1.8916360308963714e-01  0.0000000000000000e+00 8.9871442892778308e-01 1.8942920800667412e-01  0.0000000000000000e+00 8.9855424142861740e-01 1.8974125675572634e-01  0.0000000000000000e+00 8.9837791137967438e-01 1.9008473376012702e-01  0.0000000000000000e+00 8.9818212676790998e-01 1.9046598587425939e-01  0.0000000000000000e+00 8.9795476416659292e-01 1.9090833684267264e-01  0.0000000000000000e+00 8.9771227379868235e-01 1.9137999547149220e-01  0.0000000000000000e+00 8.9744053490727393e-01 1.9190812641097732e-01  0.0000000000000000e+00 8.9713442114516895e-01 1.9250251371181226e-01  0.0000000000000000e+00 8.9682867278828182e-01 1.9309614054013782e-01  0.0000000000