<?xml version="1.0"?>
<VTKFile type="UnstructuredGrid"  version="0.1"  >
<UnstructuredGrid>
<Piece  NumberOfPoints="25605" NumberOfCells="50684">
<Points>
<DataArray  type="Float64"  NumberOfComponents="3"  format="ascii">500 250 0  0 250 0  250 500 0  250 0 0  252.9976310880008 499.9820277697183 0  255.994831180465 499.9281136629446 0  258.9911693467 499.8382654314166 0  261.9862147844171 499.7124959931758 0  264.9795368730259 499.550823430959 0  267.9707052380909 499.3532709896657 0  270.9592898147818 499.1198670729815 0  273.944860911003 498.850645239173 0  276.9269892620302 498.5456441969613 0  279.9052461102784 498.204907798141 0  282.879203246639 497.8284850332306 0  285.8484330760252 497.4164300243493 0  288.812508703066 496.9688020138868 0  291.7710039592635 496.4856653605544 0  294.7234934645729 495.9670895309458 0  297.6695527219374 495.4131490839284 0  300.6087581526373 494.8239236640241 0  303.5406871632312 494.1994979890193 0  306.4649182085955 493.5399618372653 0  309.3810308492501 492.8454100354388 0  312.2886058121011 492.1159424449053 0  315.1872250543244 491.3516639464432 0  318.0764718164482 490.552684426976 0  320.9559306911491 489.7191187614222 0  323.8251876776197 488.8510867975364 0  326.6838302398962 487.9487133391117 0  329.5314473625203 487.0121281293906 0  332.3676296259557 486.0414658270902 0  335.1919692490408 485.0368659922747 0  338.0040601519906 483.9984730650284 0  340.8034980252745 482.926436340691 0  343.5898803648273 481.8209099570125 0  346.3628065522297 480.6820528636277 0  349.1218779058009 479.5100288014175 0  351.866697726272 478.3050062840155 0  354.5968713702315 477.0671585667096 0  357.3120063039883 475.7966636224122 0  360.0117121560444 474.4937041177227 0  362.6956007624657 473.158467392091 0  365.3632862410136 471.7911454221605 0  368.0143850392318 470.39193479756 0  370.6485159774368 468.9610366993228 0  373.2653003309281 467.4986568563726 0  375.8643618621848 466.0050055277077 0  378.4453268904447 464.4802974634425 0  381.0078243277097 462.9247518841339 0  383.5514857466806 461.3385924407896 0  386.0759454147861 459.7220471945478 0  388.5808403686633 458.0753485704519 0  391.0658104727646 456.398733318938 0  393.5304984398443 454.6924425024281 0  395.9745499014433 452.9567214483695 0  398.3976134594079 451.1918197133078 0  400.7993407313268 449.3979910505549 0  403.1793863983767 447.5754933756127 0  405.5374082633365 445.7245887228382 0  407.8730672875487 443.8455432173283 0  410.1860276678057 441.9386270139729 0  412.4759568502628 440.0041142859584 0  414.7425255888164 438.0422831775295 0  416.9854079982472 436.0534157591817 0  419.2042816111551 434.0377979776246 0  421.3988273934515 431.9957196423856 0  423.5687298230711 429.9274743545459 0  425.7136769203488 427.833359477718 0  427.8333602660664 425.7136761224903 0  429.9274751166117 423.5687290330868 0  431.9957203865596 421.3988266032683 0  434.0377986976932 419.2042808279605 0  436.0534164531565 416.9854072250276 0  438.0422838486247 414.7425248228072 0  440.0041149354581 412.4759560907189 0  441.9386276454979 410.1860269110977 0  443.8455438341414 407.8730665301906 0  445.7245893245478 405.5374075061595 0  447.5754939498422 403.1793856577179 0  449.3979916037435 400.7993399998601 0  451.1918202566634 398.3976127227471 0  452.9567219786559 395.9745491641559 0  454.6924430171686 393.53049770576 0  456.3987338202434 391.0658097392857 0  458.0753490553683 388.5808396405746 0  459.7220476673142 386.0759446861523 0  461.3385928978555 383.5514850233965 0  462.924752323721 381.0078236132563 0  464.4802978831972 378.4453261895309 0  466.005005928237 375.8643611748071 0  467.4986572464557 373.2652996426359 0  468.9610370690891 370.64851530636 0  470.3919351512159 368.0143843787793 0  471.7911457549822 365.363285601149 0  473.1584677051019 362.6956001426453 0  474.4937044170927 360.0117115451396 0  475.7966639080153 357.3120057030471 0  477.0671588375024 354.5968707823731 0  478.3050065468899 351.8666971371142 0  479.5100290514928 349.1218773267684 0  480.68205310082 346.3628059844174 0  481.8209101826405 343.5898798059497 0  482.926436550004 340.8034974883511 0  483.9984732613996 338.0040596298491 0  485.0368661774559 335.1919687381426 0  486.0414660017697 332.3676291253755 0  487.0121282892932 329.5314468859938 0  487.9487134870012 326.6838297809975 0  488.8510869337421 323.825187236945 0  489.7191188882317 320.9559302627332 0  490.5526845449373 318.0764713996244 0  491.3516640573307 315.1872246437704 0  492.1159425458163 312.2886054198597 0  492.8454101279934 309.3810304707378 0  493.5399619220304 306.4649178429931 0  494.1994980644915 303.5406868190015 0  494.8239237308971 300.6087578291331 0  495.4131491423161 297.6695524213444 0  495.9670895813101 294.7234931875826 0  496.4856654030534 291.7710037084818 0  496.9688020494549 288.8125084767419 0  497.416430053242 285.8484328766153 0  497.8284850586459 282.8792030550702 0  498.2049078189591 279.9052459374942 0  498.5456442137286 276.9269891072627 0  498.850645253019 273.9448607671062 0  499.1198670835989 270.9592896885852 0  499.3532709967772 267.9707051394148 0  499.5508234355897 264.9795367958812 0  499.7124959959075 261.9862147275054 0  499.8382654331632 258.9911692981657 0  499.928113663985 255.99483113709 0  499.9820277699785 252.9976310663071 0  499.9820277697257 247.0023689126091 0  499.9281136630343 244.0051688232745 0  499.8382654314717 241.0088306548307 0  499.7124959931211 238.0137852144455 0  499.5508234310553 235.0204631285785 0  499.3532709900699 232.0292947675166 0  499.119867073792 229.0407101948513 0  498.8506452406773 226.0551391046306 0  498.5456441987692 223.0730107546571 0  498.2049078002218 220.0947539069917 0  497.8284850356648 217.120796771709 0  497.4164300267099 214.151566940267 0  496.968802017216 211.187491318118 0  496.4856653659872 208.2289960727951 0  495.9670895372035 205.2765065698432 0  495.4131490907147 202.330447313 0  494.8239236713522 199.3912418828135 0  494.1994979969027 196.4593128727251 0  493.5399618460726 193.5350818293917 0  492.8454100458835 190.6189691934644 0  492.1159424557956 187.7113942302294 0  491.3516639574156 184.8127749862999 0  490.5526844387521 181.923528225163 0  489.7191187738694 179.0440693509028 0  488.851086810667 176.1748123648628 0  487.948713352938 173.3161698030064 0  487.0121281439243 170.4685526807917 0  486.0414658415049 167.6323704153526 0  485.0368660060558 164.8080307889799 0  483.9984730779887 161.9959398824702 0  482.9264363544502 159.1965020100202 0  481.8209099702043 156.4101196678486 0  480.6820528745703 153.6371934739656 0  479.5100288124721 150.8781221197951 0  478.3050062927852 148.1333022933829 0  477.0671585723666 145.403128642049 0  475.796663627405 142.687993706517 0  474.4937041236649 139.9882878560814 0  473.1584673984938 137.3043992502131 0  471.7911454319914 134.6367137778867 0  470.3919348096422 131.9856149833316 0  468.9610367113798 129.3514840444451 0  467.49865687022 126.7346996935054 0  466.0050055427385 124.1356381636107 0  464.4802974781252 121.5546731340727 0  462.9247519005733 118.992175699009 0  461.3385924615702 116.4485142862037 0  459.722047215144 113.924054616957 0  458.0753485880027 111.4191596576888 0  456.3987333337139 108.9341895488548 0  454.692442514023 106.4695015766915 0  452.95672145825 104.0254501122942 0  451.1918197247282 101.6023865560754 0  449.3979910627008 99.20065928473332 0  447.5754933882043 96.82061361786421 0  445.7245887341124 94.46259175085058 0  443.8455432269008 92.12693272420489 0  441.9386270210269 89.81397234064673 0  440.0041142971544 87.52404316283014 0  438.0422831897421 85.25747442512349 0  436.0534157701649 83.01459201399018 0  434.0377979907771 80.79571840315057 0  431.9957196541004 78.60117261898753 0  429.9274743620823 76.43127018474144 0  427.8333594859367 74.28632308796901 0  425.7136761283247 72.16663973969838 0  423.5687290359737 70.07252488617331 0  421.3988265987173 68.00427960915448 0  419.2042808240311 65.962201298694 0  416.9854072196475 63.94658354201471 0  414.742524818212 61.95771614734943 0  412.4759560828471 59.99588505781063 0  410.1860269003736 58.06137234555209 0  407.8730665183855 56.15445615624427 0  405.5374074948106 54.27541066643354 0  403.1793856410161 52.424506037209 0  400.7993399855741 50.60200838545225 0  398.3976127114923 48.80817973503514 0  395.9745491514178 47.04327801218227 0  393.5304976958927 45.30755697591243 0  391.0658097308475 43.60126617398947 0  388.5808396359472 41.92465094154986 0  386.0759446832285 40.27795233078868 0  383.5514850239504 38.66140710249451 0  381.007823619977 37.07524768041412 0  378.4453262000283 35.51970212308933 0  375.8643611921311 33.99499408185753 0  373.2652996617874 32.50134276439832 0  370.6485153256615 31.03896294154612 0  368.0143843882092 29.60806485383361 0  365.3632855907917 28.2088542396306 0  362.6956001322776 26.84153228966238 0  360.0117115354126 25.50629557814059 0  357.3120057003284 24.20333609069269 0  354.596870775138 22.93284115916481 0  351.8666971306181 21.69499345021163 0  349.121877320111 20.48997094563194 0  346.3628059771881 19.31794689616012 0  343.5898798100648 18.17908981902079 0  340.8034974914794 17.07356345121562 0  338.0040596332272 16.00152673987083 0  335.1919687416658 14.9631338238211 0  332.3676291322006 13.95853400061199 0  329.5314468917599 12.98787171264172 0  326.6838297822748 12.05128651341042 0  323.8251872378164 11.14891306652726 0  320.9559302656854 10.28088111264219 0  318.076471404611 9.447315456473888 0  315.1872246503818 8.648335944454999 0  312.2886054290304 7.88405745654299 0  309.3810304838133 7.154589875203868 0  306.4649178487239 6.460038079298243 0  303.5406868253978 5.800501936910877 0  300.6087578339258 5.176076270093546 0  297.669552426172 4.586850858621602 0  294.7234931936628 4.0329104197954 0  291.7710037123022 3.514334597594029 0  288.8125084726372 3.031197949900047 0  285.8484328697872 2.58356994576863 0  282.8792030484304 2.171514940473202 0  279.905245932244 1.795092180408318 0  276.9269891008954 1.454
[...]
<PointData  Vectors="f_12"> 
<DataArray  type="Float64"  Name="f_12"  NumberOfComponents="3" format="ascii">0.0000000000000000e+00 3.5197507524252014e-01 9.5011604240227676e-01  0.0000000000000000e+00 6.3606637806083355e-01 6.2767966530398223e-01  0.0000000000000000e+00 1.5282215217692147e-02 2.6498672348354080e-01  0.0000000000000000e+00 8.9427878292058605e-01 1.9803949060187481e-01  0.0000000000000000e+00 1.5282163234722640e-02 2.6387687244560187e-01  0.0000000000000000e+00 1.5282276123132071e-02 2.6289191262967204e-01  0.0000000000000000e+00 1.5282489905544186e-02 2.6207416705267444e-01  0.0000000000000000e+00 1.5282765112236564e-02 2.6142154265340356e-01  0.0000000000000000e+00 1.5283018518083787e-02 2.6091716425642991e-01  0.0000000000000000e+00 1.5283223183671322e-02 2.6054925350814023e-01  0.0000000000000000e+00 1.5283350287489976e-02 2.6032692206741836e-01  0.0000000000000000e+00 1.5283386463487184e-02 2.6024175847549563e-01  0.0000000000000000e+00 1.5283321861537228e-02 2.6029432765644300e-01  0.0000000000000000e+00 1.5283163809800583e-02 2.6048689354501381e-01  0.0000000000000000e+00 1.5282929928536892e-02 2.6081291756273944e-01  0.0000000000000000e+00 1.5282634687241168e-02 2.6129548497013561e-01  0.0000000000000000e+00 1.5282329380180924e-02 2.6190972552833525e-01  0.0000000000000000e+00 1.5282042767686960e-02 2.6265518126413462e-01  0.0000000000000000e+00 1.5281835881427664e-02 2.6355032653789340e-01  0.0000000000000000e+00 1.5281783819906823e-02 2.6458938132088627e-01  0.0000000000000000e+00 1.5281948131971059e-02 2.6577429899727928e-01  0.0000000000000000e+00 1.5282427627808914e-02 2.6709591458856430e-01  0.0000000000000000e+00 1.5283361390084767e-02 2.6855750945292245e-01  0.0000000000000000e+00 1.5284789868831012e-02 2.7019602494388895e-01  0.0000000000000000e+00 1.5286925695764153e-02 2.7198846435029250e-01  0.0000000000000000e+00 1.5289858687038346e-02 2.7391133513815485e-01  0.0000000000000000e+00 1.5293696943639338e-02 2.7598795657081260e-01  0.0000000000000000e+00 1.5298668547541340e-02 2.7822916809366055e-01  0.0000000000000000e+00 1.5304889977897666e-02 2.8062142078616736e-01  0.0000000000000000e+00 1.5312582095508835e-02 2.8316002462160400e-01  0.0000000000000000e+00 1.5321999817060748e-02 2.8584440570428205e-01  0.0000000000000000e+00 1.5332981255025861e-02 2.8866995524940475e-01  0.0000000000000000e+00 1.5345954370521853e-02 2.9162479843612471e-01  0.0000000000000000e+00 1.5361072324994644e-02 2.9470699221328966e-01  0.0000000000000000e+00 1.5378503369160903e-02 2.9793140118334061e-01  0.0000000000000000e+00 1.5398321449633162e-02 3.0126202575962202e-01  0.0000000000000000e+00 1.5420483616571837e-02 3.0468492583484114e-01  0.0000000000000000e+00 1.5445275366339488e-02 3.0820335007077831e-01  0.0000000000000000e+00 1.5472709213662086e-02 3.1181283003879584e-01  0.0000000000000000e+00 1.5502943474066741e-02 3.1551710449102016e-01  0.0000000000000000e+00 1.5535717047157106e-02 3.1925835742175845e-01  0.0000000000000000e+00 1.5572100638203799e-02 3.2314076239592393e-01  0.0000000000000000e+00 1.5611178315529665e-02 3.2705417036130496e-01  0.0000000000000000e+00 1.5653327096077134e-02 3.3104942447901686e-01  0.0000000000000000e+00 1.5698864939875323e-02 3.3512489134462492e-01  0.0000000000000000e+00 1.5748043096430027e-02 3.3928825740063329e-01  0.0000000000000000e+00 1.5801023507874112e-02 3.4355602351087811e-01  0.0000000000000000e+00 1.5858290043995769e-02 3.4793956567116235e-01  0.0000000000000000e+00 1.5920339453671165e-02 3.5246006929088003e-01  0.0000000000000000e+00 1.5987517276434032e-02 3.5714620832526384e-01  0.0000000000000000e+00 1.6060903667844569e-02 3.6201289661592773e-01  0.0000000000000000e+00 1.6140937433280288e-02 3.6710073584388747e-01  0.0000000000000000e+00 1.6228782235691974e-02 3.7243384401824148e-01  0.0000000000000000e+00 1.6325491030298532e-02 3.7805082831559983e-01  0.0000000000000000e+00 1.6431650656152895e-02 3.8395646003403738e-01  0.0000000000000000e+00 1.6549483542102769e-02 3.9020079082100284e-01  0.0000000000000000e+00 1.6679538587986861e-02 3.9681781549661965e-01  0.0000000000000000e+00 1.6823393621288887e-02 4.0379307369179640e-01  0.0000000000000000e+00 1.6981963379170885e-02 4.1112555147225416e-01  0.0000000000000000e+00 1.7157009676875147e-02 4.1884512363556947e-01  0.0000000000000000e+00 1.7349570542649177e-02 4.2694361114967144e-01  0.0000000000000000e+00 1.7560485142944574e-02 4.3537408192513882e-01  0.0000000000000000e+00 1.7790053028844507e-02 4.4409902956277864e-01  0.0000000000000000e+00 1.8038677597905593e-02 4.5307351850968897e-01  0.0000000000000000e+00 1.8306980608531514e-02 4.6227350222689639e-01  0.0000000000000000e+00 1.8592783628530007e-02 4.7160173088374990e-01  0.0000000000000000e+00 1.8900530922603690e-02 4.8109765905790763e-01  0.0000000000000000e+00 1.9225990596550856e-02 4.9065885413769378e-01  0.0000000000000000e+00 1.9570994713730219e-02 5.0028298761756218e-01  0.0000000000000000e+00 1.9937995054709341e-02 5.1000338174842363e-01  0.0000000000000000e+00 2.0328252602795714e-02 5.1983849172526042e-01  0.0000000000000000e+00 2.0742992584208583e-02 5.2977048028457063e-01  0.0000000000000000e+00 2.1186506912387347e-02 5.3985925034507454e-01  0.0000000000000000e+00 2.1664656870433691e-02 5.5019888895588809e-01  0.0000000000000000e+00 2.2183098298069925e-02 5.6084713559989086e-01  0.0000000000000000e+00 2.2748551525998500e-02 5.7184452286006060e-01  0.0000000000000000e+00 2.3367807246064628e-02 5.8325828023040438e-01  0.0000000000000000e+00 2.4050607197738071e-02 5.9513347714607812e-01  0.0000000000000000e+00 2.4803897496308153e-02 6.0748841163980161e-01  0.0000000000000000e+00 2.5635824134434663e-02 6.2031292948147732e-01  0.0000000000000000e+00 2.6554379471812526e-02 6.3356818672144533e-01  0.0000000000000000e+00 2.7566596482115138e-02 6.4722307461462458e-01  0.0000000000000000e+00 2.8675784603164757e-02 6.6116708088280196e-01  0.0000000000000000e+00 2.9885290085804237e-02 6.7529518336344274e-01  0.0000000000000000e+00 3.1197761243475220e-02 6.8950986846734097e-01  0.0000000000000000e+00 3.2612387520262319e-02 7.0371797412492498e-01  0.0000000000000000e+00 3.4130594922808725e-02 7.1781250129249752e-01  0.0000000000000000e+00 3.5758997823677786e-02 7.3178866050405356e-01  0.0000000000000000e+00 3.7499890989582833e-02 7.4560326978338787e-01  0.0000000000000000e+00 3.9363179268756120e-02 7.5925140694835158e-01  0.0000000000000000e+00 4.1363485460483074e-02 7.7277917597388646e-01  0.0000000000000000e+00 4.3518572019574986e-02 7.8622307634530419e-01  0.0000000000000000e+00 4.5853733068685253e-02 7.9963691387655633e-01  0.0000000000000000e+00 4.8397519179021312e-02 8.1307930944529827e-01  0.0000000000000000e+00 5.1168106432619723e-02 8.2650905954834064e-01  0.0000000000000000e+00 5.4196891081430408e-02 8.3995093813681110e-01  0.0000000000000000e+00 5.7495187463850288e-02 8.5332041423308669e-01  0.0000000000000000e+00 6.1080496496310879e-02 8.6654619648601927e-01  0.0000000000000000e+00 6.4950850232304111e-02 8.7952313587569908e-01  0.0000000000000000e+00 6.9099673320007826e-02 8.9212509050947619e-01  0.0000000000000000e+00 7.3503973284231333e-02 9.0422901190544680e-01  0.0000000000000000e+00 7.8159416369899981e-02 9.1578017646902443e-01  0.0000000000000000e+00 8.3026230116316407e-02 9.2667896189070664e-01  0.0000000000000000e+00 8.8103930100142835e-02 9.3692019839713714e-01  0.0000000000000000e+00 9.3390950201134720e-02 9.4651064655473249e-01  0.0000000000000000e+00 9.8894774766985730e-02 9.5546531854674799e-01  0.0000000000000000e+00 1.0463322379655132e-01 9.6381862644413396e-01  0.0000000000000000e+00 1.1063727560210243e-01 9.7160200016293241e-01  0.0000000000000000e+00 1.1694408261136087e-01 9.7883972591484103e-01  0.0000000000000000e+00 1.2357894984086566e-01 9.8552753450834296e-01  0.0000000000000000e+00 1.3055444664632021e-01 9.9163924141867088e-01  0.0000000000000000e+00 1.3788597552551174e-01 9.9715169751691790e-01  0.0000000000000000e+00 1.4554405669115889e-01 1.0020130474894287e+00  0.0000000000000000e+00 1.5348825801185195e-01 1.0061792699974768e+00  0.0000000000000000e+00 1.6167761669984967e-01 1.0096281671714189e+00  0.0000000000000000e+00 1.7005132621958680e-01 1.0123471098343639e+00  0.0000000000000000e+00 1.7856563417002763e-01 1.0143439846209428e+00  0.0000000000000000e+00 1.8718199028168206e-01 1.0156460816301818e+00  0.0000000000000000e+00 1.9587762016888219e-01 1.0162838999157837e+00  0.0000000000000000e+00 2.0469211965982839e-01 1.0162835128530274e+00  0.0000000000000000e+00 2.1360738510962590e-01 1.0156861317754655e+00  0.0000000000000000e+00 2.2267858490183470e-01 1.0144881973980513e+00  0.0000000000000000e+00 2.3194375985958471e-01 1.0126998539949847e+00  0.0000000000000000e+00 2.4143768919035419e-01 1.0103080876553536e+00  0.0000000000000000e+00 2.5114672719495684e-01 1.0073224677196329e+00  0.0000000000000000e+00 2.6107029611817495e-01 1.0037326054621132e+00  0.0000000000000000e+00 2.7116263807621743e-01 9.9955943112331946e-01  0.0000000000000000e+00 2.8135857137305498e-01 9.9483740836658696e-01  0.0000000000000000e+00 2.9160042484524884e-01 9.8961043833829754e-01  0.0000000000000000e+00 3.0181725898663292e-01 9.8393729128865148e-01  0.0000000000000000e+00 3.1197522813350648e-01 9.7786374579766300e-01  0.0000000000000000e+00 3.2205074369923409e-01 9.7143320825715962e-01  0.0000000000000000e+00 3.3205487689480995e-01 9.6466545781350410e-01  0.0000000000000000e+00 3.4201639015319468e-01 9.5756344396008108e-01  0.0000000000000000e+00 3.6197409992261143e-01 9.4230236428765335e-01  0.0000000000000000e+00 3.7204185357941755e-01 9.3410773610638398e-01  0.0000000000000000e+00 3.8219407398159078e-01 9.2552255867378608e-01  0.0000000000000000e+00 3.9240585678968964e-01 9.1657297440867613e-01  0.0000000000000000e+00 4.0264245244731117e-01 9.0729511682841202e-01  0.0000000000000000e+00 4.1284636095319305e-01 8.9775070546626878e-01  0.0000000000000000e+00 4.2295611892929413e-01 8.8801139041280586e-01  0.0000000000000000e+00 4.3291984560285590e-01 8.7814441251896458e-01  0.0000000000000000e+00 4.4271886605333743e-01 8.6818705829036258e-01  0.0000000000000000e+00 4.5231935451360278e-01 8.5819595578699870e-01  0.0000000000000000e+00 4.6177121976751434e-01 8.4813226506846040e-01  0.0000000000000000e+00 4.7107551799256020e-01 8.3801732923761385e-01  0.0000000000000000e+00 4.8030908559374075e-01 8.2777522752339661e-01  0.0000000000000000e+00 4.8949520404874158e-01 8.1738880844084161e-01  0.0000000000000000e+00 4.9866388356663077e-01 8.0683089603061053e-01  0.0000000000000000e+00 5.0781464983986535e-01 7.9610498034833432e-01  0.0000000000000000e+00 5.1694429240349493e-01 7.8522204061495560e-01  0.0000000000000000e+00 5.2600479337803330e-01 7.7424342653433020e-01  0.0000000000000000e+00 5.3495503616377804e-01 7.6322699054677845e-01  0.0000000000000000e+00 5.4373470255257017e-01 7.5225796734688644e-01  0.0000000000000000e+00 5.5232513526681470e-01 7.4137163176586440e-01  0.0000000000000000e+00 5.6069588753320787e-01 7.3061896568559770e-01  0.0000000000000000e+00 5.6885029669865994e-01 7.2000879148993546e-01  0.0000000000000000e+00 5.7681711857911033e-01 7.0951526711580160e-01  0.0000000000000000e+00 5.8463560855135688e-01 6.9909631488407831e-01  0.0000000000000000e+00 5.9234926252034226e-01 6.8870116563848094e-01  0.0000000000000000e+00 5.9998555924617825e-01 6.7829791298970954e-01  0.0000000000000000e+00 6.0757673659417843e-01 6.6784716898539709e-01  0.0000000000000000e+00 6.1511379835365521e-01 6.5736446489336964e-01  0.0000000000000000e+00 6.2259264898752553e-01 6.4685831996774434e-01  0.0000000000000000e+00 6.2997443301947686e-01 6.3638790665664569e-01  0.0000000000000000e+00 6.3720831672171996e-01 6.2603049099422248e-01  0.0000000000000000e+00 6.4426995882972049e-01 6.1582812813786958e-01  0.0000000000000000e+00 6.5113301676471180e-01 6.0582644249068940e-01  0.0000000000000000e+00 6.5778588766007073e-01 5.9605052432723027e-01  0.0000000000000000e+00 6.6424065025089585e-01 5.8649018261006258e-01  0.0000000000000000e+00 6.7052145532980134e-01 5.7711696916820820e-01  0.0000000000000000e+00 6.7665781569531991e-01 5.6789187946081043e-01  0.0000000000000000e+00 6.8268278504106705e-01 5.5877054037483032e-01  0.0000000000000000e+00 6.8863977861437420e-01 5.4969042008149283e-01  0.0000000000000000e+00 6.9452768608728510e-01 5.4065532704637853e-01  0.0000000000000000e+00 7.0036431678992994e-01 5.3164026549225640e-01  0.0000000000000000e+00 7.0613648372858984e-01 5.2266722603326188e-01  0.0000000000000000e+00 7.1181946842159138e-01 5.1377747967616039e-01  0.0000000000000000e+00 7.1739024985687461e-01 5.0501006533570625e-01  0.0000000000000000e+00 7.2281019366735466e-01 4.9642907555668325e-01  0.0000000000000000e+00 7.2805798406328570e-01 4.8807305158586972e-01  0.0000000000000000e+00 7.3313807625537553e-01 4.7993969682038351e-01  0.0000000000000000e+00 7.3803349561658937e-01 4.7206016373253279e-01  0.0000000000000000e+00 7.4276896384293944e-01 4.6439946689301714e-01  0.0000000000000000e+00 7.4736305489098942e-01 4.5693103427683912e-01  0.0000000000000000e+00 7.5184561981113451e-01 4.4960966796094370e-01  0.0000000000000000e+00 7.5625723790207644e-01 4.4237098564561123e-01  0.0000000000000000e+00 7.6059908868924331e-01 4.3521497950021409e-01  0.0000000000000000e+00 7.6488655552187623e-01 4.2811754205475100e-01  0.0000000000000000e+00 7.6913940620160115e-01 4.2104723063176847e-01  0.0000000000000000e+00 7.7332589130734797e-01 4.1405740789526835e-01  0.0000000000000000e+00 7.7744337105410732e-01 4.0715413154826363e-01  0.0000000000000000e+00 7.8147295092309965e-01 4.0037044301035435e-01  0.0000000000000000e+00 7.8539592495352417e-01 3.9373968036212770e-01  0.0000000000000000e+00 7.8918416560558713e-01 3.8731164355830833e-01  0.0000000000000000e+00 7.9282400446739076e-01 3.8111206168617379e-01  0.0000000000000000e+00 7.9632571960701271e-01 3.7512597430191202e-01  0.0000000000000000e+00 7.9969614415994794e-01 3.6934404679287114e-01  0.0000000000000000e+00 8.0294543104862959e-01 3.6375104903290872e-01  0.0000000000000000e+00 8.0609045692307091e-01 3.5831984077203172e-01  0.0000000000000000e+00 8.0914824395445650e-01 3.5302256830345080e-01  0.0000000000000000e+00 8.1214218361427948e-01 3.4781995210719496e-01  0.0000000000000000e+00 8.1509336069877703e-01 3.4267621333971549e-01  0.0000000000000000e+00 8.1799515264115263e-01 3.3760357852659229e-01  0.0000000000000000e+00 8.2085321899770536e-01 3.3259288097629541e-01  0.0000000000000000e+00 8.2368720522132510e-01 3.2761002971267228e-01  0.0000000000000000e+00 8.2648965253260809e-01 3.2266851452791284e-01  0.0000000000000000e+00 8.2922692751854876e-01 3.1782811862858479e-01  0.0000000000000000e+00 8.3188895049413403e-01 3.1310747410192680e-01  0.0000000000000000e+00 8.3447717879978833e-01 3.0850493328004674e-01  0.0000000000000000e+00 8.3697285288569279e-01 3.0405483756886398e-01  0.0000000000000000e+00 8.3936943482794424e-01 2.9976999642126989e-01  0.0000000000000000e+00 8.4166130815105922e-01 2.9566165762412094e-01  0.0000000000000000e+00 8.4384915116124404e-01 2.9172986789927097e-01  0.0000000000000000e+00 8.4594282508147189e-01 2.8795811270347005e-01  0.0000000000000000e+00 8.4795042269727217e-01 2.8433290683921486e-01  0.0000000000000000e+00 8.4988059466245769e-01 2.8083958147477617e-01  0.0000000000000000e+00 8.5174480512023942e-01 2.7745822977459406e-01  0.0000000000000000e+00 8.5355418574490238e-01 2.7416934785785291e-01  0.0000000000000000e+00 8.5531929745019852e-01 2.7095430883236532e-01  0.0000000000000000e+00 8.5704877244130717e-01 2.6779781886747583e-01  0.0000000000000000e+00 8.5874943232421108e-01 2.6468775843315073e-01  0.0000000000000000e+00 8.6042443501679833e-01 2.6161860536921938e-01  0.0000000000000000e+00 8.6207468507245433e-01 2.5858890352707742e-01  0.0000000000000000e+00 8.6369935173394152e-01 2.5560035503542433e-01  0.0000000000000000e+00 8.6529439170172195e-01 2.5266057427576022e-01  0.0000000000000000e+00 8.6685596322620762e-01 2.4977684468191910e-01  0.0000000000000000e+00 8.6837751936719565e-01 2.4696149617076435e-01  0.0000000000000000e+00 8.6985323713133855e-01 2.4422561273566315e-01  0.0000000000000000e+00 8.7127801237493752e-01 2.4157901448575797e-01  0.0000000000000000e+00 8.7264596203231737e-01 2.3903305556571353e-01  0.0000000000000000e+00 8.7395092327679169e-01 2.3659972193168963e-01  0.0000000000000000e+00 8.7519883409485610e-01 2.3426842410720480e-01  0.0000000000000000e+00 8.7639134191994850e-01 2.3203659214899144e-01  0.0000000000000000e+00 8.7751849273479654e-01 2.2992329671387268e-01  0.0000000000000000e+00 8.7858515142460425e-01 2.2791994961119275e-01  0.0000000000000000e+00 8.7958753387691002e-01 2.2603414364064325e-01  0.0000000000000000e+00 8.8054492053822497e-01 2.2423019532691377e-01  0.0000000000000000e+00 8.8147675557140293e-01 2.2247199039545221e-01  0.0000000000000000e+00 8.8230820228721674e-01 2.2090032203844190e-01  0.0000000000000000e+00 8.8311972476035350e-01 2.1936451744239274e-01  0.0000000000000000e+00 8.8388955729512098e-01 2.1790570548240801e-01  0.0000000000000000e+00 8.8463836537636364e-01 2.1648512837135045e-01  0.0000000000000000e+00 8.8535958145236771e-01 2.1511535759081837e-01  0.0000000000000000e+00 8.8603048957392816e-01 2.1383947225584579e-01  0.0000000000000000e+00 8.8667953857025061e-01 2.1260390681996255e-01  0.0000000000000000e+00 8.8730776300617520e-01 2.1140683041661598e-01  0.0000000000000000e+00 8.8790568833879246e-01 2.1026632908989798e-01  0.0000000000000000e+00 8.8847844500125883e-01 2.0917279255140100e-01  0.0000000000000000e+00 8.8903006255904882e-01 2.0811868372279752e-01  0.0000000000000000e+00 8.8955324288567428e-01 2.0711800969660812e-01  0.0000000000000000e+00 8.9005685315807925e-01 2.0615399752989189e-01  0.0000000000000000e+00 8.9054434960982809e-01 2.0522019321055260e-01  0.0000000000000000e+00 8.9098430840962739e-01 2.0437650622646414e-01  0.0000000000000000e+00 8.9143235414912758e-01 2.0351706454001420e-01  0.0000000000000000e+00 8.9181304728115185e-01 2.0278582023707167e-01  0.0000000000000000e+00 8.9219805815693687e-01 2.0204616525815253e-01  0.0000000000000000e+00 8.9255333885166976e-01 2.0136313550553003e-01  0.0000000000000000e+00 8.9288631933243290e-01 2.0072263653162695e-01  0.0000000000000000e+00 8.9318363784494825e-01 2.0015030781487769e-01  0.0000000000000000e+00 8.9347765363472598e-01 1.9958432330185535e-01  0.0000000000000000e+00 8.9368829226433455e-01 1.9917796654167827e-01  0.0000000000000000e+00 8.9391461128346661e-01 1.9874179833888730e-01  0.0000000000000000e+00 8.9410573443547547e-01 1.9837320826485852e-01  0.0000000000000000e+00 8.9441030496358864e-01 1.9778559152701589e-01  0.0000000000000000e+00 8.9452709264277708e-01 1.9756025098447558e-01  0.0000000000000000e+00 8.9461374955592976e-01 1.9739299019501122e-01  0.0000000000000000e+00 8.9466366973775169e-01 1.9729650085251352e-01  0.0000000000000000e+00 8.9467927482196141e-01 1.9726614989439537e-01  0.0000000000000000e+00 8.9470124263850759e-01 1.9722396281549251e-01  0.0000000000000000e+00 8.9466165720839119e-01 1.9730015467337156e-01  0.0000000000000000e+00 8.9463072150451595e-01 1.9736013100594804e-01  0.0000000000000000e+00 8.9454468501456030e-01 1.9752604941115909e-01  0.0000000000000000e+00 8.9444268647363356e-01 1.9772288674187927e-01  0.0000000000000000e+00 8.9431698304270946e-01 1.9796544499317587e-01  0.0000000000000000e+00 8.9416351013218753e-01 1.9826149406703503e-01  0.0000000000000000e+00 8.9398337966610109e-01 1.9860883517027630e-01  0.0000000000000000e+00 8.9378551271814954e-01 1.9899035055560294e-01  0.0000000000000000e+00 8.9356662725786218e-01 1.9941226980514551e-01  0.0000000000000000e+00 8.9331395255084978e-01 1.9989894334094235e-01  0.0000000000000000e+00 8.9304576384828827e-01 2.0041536698992046e-01  0.0000000000000000e+00 8.9274729652410389e-01 2.0098969637282996e-01  0.0000000000000000e+00 8.9241365167661035e-01 2.0163120006366136e-01  0.0000000000000000e+00 8.9208273991864917e-01 2.0226738851808918e-01  0.0000000000