<?xml version="1.0"?>
<VTKFile type="UnstructuredGrid"  version="0.1"  >
<UnstructuredGrid>
<Piece  NumberOfPoints="25605" NumberOfCells="50684">
<Points>
<DataArray  type="Float64"  NumberOfComponents="3"  format="ascii">500 250 0  0 250 0  250 500 0  250 0 0  252.9976310880008 499.9820277697183 0  255.994831180465 499.9281136629446 0  258.9911693467 499.8382654314166 0  261.9862147844171 499.7124959931758 0  264.9795368730259 499.550823430959 0  267.9707052380909 499.3532709896657 0  270.9592898147818 499.1198670729815 0  273.944860911003 498.850645239173 0  276.9269892620302 498.5456441969613 0  279.9052461102784 498.204907798141 0  282.879203246639 497.8284850332306 0  285.8484330760252 497.4164300243493 0  288.812508703066 496.9688020138868 0  291.7710039592635 496.4856653605544 0  294.7234934645729 495.9670895309458 0  297.6695527219374 495.4131490839284 0  300.6087581526373 494.8239236640241 0  303.5406871632312 494.1994979890193 0  306.4649182085955 493.5399618372653 0  309.3810308492501 492.8454100354388 0  312.2886058121011 492.1159424449053 0  315.1872250543244 491.3516639464432 0  318.0764718164482 490.552684426976 0  320.9559306911491 489.7191187614222 0  323.8251876776197 488.8510867975364 0  326.6838302398962 487.9487133391117 0  329.5314473625203 487.0121281293906 0  332.3676296259557 486.0414658270902 0  335.1919692490408 485.0368659922747 0  338.0040601519906 483.9984730650284 0  340.8034980252745 482.926436340691 0  343.5898803648273 481.8209099570125 0  346.3628065522297 480.6820528636277 0  349.1218779058009 479.5100288014175 0  351.866697726272 478.3050062840155 0  354.5968713702315 477.0671585667096 0  357.3120063039883 475.7966636224122 0  360.0117121560444 474.4937041177227 0  362.6956007624657 473.158467392091 0  365.3632862410136 471.7911454221605 0  368.0143850392318 470.39193479756 0  370.6485159774368 468.9610366993228 0  373.2653003309281 467.4986568563726 0  375.8643618621848 466.0050055277077 0  378.4453268904447 464.4802974634425 0  381.0078243277097 462.9247518841339 0  383.5514857466806 461.3385924407896 0  386.0759454147861 459.7220471945478 0  388.5808403686633 458.0753485704519 0  391.0658104727646 456.398733318938 0  393.5304984398443 454.6924425024281 0  395.9745499014433 452.9567214483695 0  398.3976134594079 451.1918197133078 0  400.7993407313268 449.3979910505549 0  403.1793863983767 447.5754933756127 0  405.5374082633365 445.7245887228382 0  407.8730672875487 443.8455432173283 0  410.1860276678057 441.9386270139729 0  412.4759568502628 440.0041142859584 0  414.7425255888164 438.0422831775295 0  416.9854079982472 436.0534157591817 0  419.2042816111551 434.0377979776246 0  421.3988273934515 431.9957196423856 0  423.5687298230711 429.9274743545459 0  425.7136769203488 427.833359477718 0  427.8333602660664 425.7136761224903 0  429.9274751166117 423.5687290330868 0  431.9957203865596 421.3988266032683 0  434.0377986976932 419.2042808279605 0  436.0534164531565 416.9854072250276 0  438.0422838486247 414.7425248228072 0  440.0041149354581 412.4759560907189 0  441.9386276454979 410.1860269110977 0  443.8455438341414 407.8730665301906 0  445.7245893245478 405.5374075061595 0  447.5754939498422 403.1793856577179 0  449.3979916037435 400.7993399998601 0  451.1918202566634 398.3976127227471 0  452.9567219786559 395.9745491641559 0  454.6924430171686 393.53049770576 0  456.3987338202434 391.0658097392857 0  458.0753490553683 388.5808396405746 0  459.7220476673142 386.0759446861523 0  461.3385928978555 383.5514850233965 0  462.924752323721 381.0078236132563 0  464.4802978831972 378.4453261895309 0  466.005005928237 375.8643611748071 0  467.4986572464557 373.2652996426359 0  468.9610370690891 370.64851530636 0  470.3919351512159 368.0143843787793 0  471.7911457549822 365.363285601149 0  473.1584677051019 362.6956001426453 0  474.4937044170927 360.0117115451396 0  475.7966639080153 357.3120057030471 0  477.0671588375024 354.5968707823731 0  478.3050065468899 351.8666971371142 0  479.5100290514928 349.1218773267684 0  480.68205310082 346.3628059844174 0  481.8209101826405 343.5898798059497 0  482.926436550004 340.8034974883511 0  483.9984732613996 338.0040596298491 0  485.0368661774559 335.1919687381426 0  486.0414660017697 332.3676291253755 0  487.0121282892932 329.5314468859938 0  487.9487134870012 326.6838297809975 0  488.8510869337421 323.825187236945 0  489.7191188882317 320.9559302627332 0  490.5526845449373 318.0764713996244 0  491.3516640573307 315.1872246437704 0  492.1159425458163 312.2886054198597 0  492.8454101279934 309.3810304707378 0  493.5399619220304 306.4649178429931 0  494.1994980644915 303.5406868190015 0  494.8239237308971 300.6087578291331 0  495.4131491423161 297.6695524213444 0  495.9670895813101 294.7234931875826 0  496.4856654030534 291.7710037084818 0  496.9688020494549 288.8125084767419 0  497.416430053242 285.8484328766153 0  497.8284850586459 282.8792030550702 0  498.2049078189591 279.9052459374942 0  498.5456442137286 276.9269891072627 0  498.850645253019 273.9448607671062 0  499.1198670835989 270.9592896885852 0  499.3532709967772 267.9707051394148 0  499.5508234355897 264.9795367958812 0  499.7124959959075 261.9862147275054 0  499.8382654331632 258.9911692981657 0  499.928113663985 255.99483113709 0  499.9820277699785 252.9976310663071 0  499.9820277697257 247.0023689126091 0  499.9281136630343 244.0051688232745 0  499.8382654314717 241.0088306548307 0  499.7124959931211 238.0137852144455 0  499.5508234310553 235.0204631285785 0  499.3532709900699 232.0292947675166 0  499.119867073792 229.0407101948513 0  498.8506452406773 226.0551391046306 0  498.5456441987692 223.0730107546571 0  498.2049078002218 220.0947539069917 0  497.8284850356648 217.120796771709 0  497.4164300267099 214.151566940267 0  496.968802017216 211.187491318118 0  496.4856653659872 208.2289960727951 0  495.9670895372035 205.2765065698432 0  495.4131490907147 202.330447313 0  494.8239236713522 199.3912418828135 0  494.1994979969027 196.4593128727251 0  493.5399618460726 193.5350818293917 0  492.8454100458835 190.6189691934644 0  492.1159424557956 187.7113942302294 0  491.3516639574156 184.8127749862999 0  490.5526844387521 181.923528225163 0  489.7191187738694 179.0440693509028 0  488.851086810667 176.1748123648628 0  487.948713352938 173.3161698030064 0  487.0121281439243 170.4685526807917 0  486.0414658415049 167.6323704153526 0  485.0368660060558 164.8080307889799 0  483.9984730779887 161.9959398824702 0  482.9264363544502 159.1965020100202 0  481.8209099702043 156.4101196678486 0  480.6820528745703 153.6371934739656 0  479.5100288124721 150.8781221197951 0  478.3050062927852 148.1333022933829 0  477.0671585723666 145.403128642049 0  475.796663627405 142.687993706517 0  474.4937041236649 139.9882878560814 0  473.1584673984938 137.3043992502131 0  471.7911454319914 134.6367137778867 0  470.3919348096422 131.9856149833316 0  468.9610367113798 129.3514840444451 0  467.49865687022 126.7346996935054 0  466.0050055427385 124.1356381636107 0  464.4802974781252 121.5546731340727 0  462.9247519005733 118.992175699009 0  461.3385924615702 116.4485142862037 0  459.722047215144 113.924054616957 0  458.0753485880027 111.4191596576888 0  456.3987333337139 108.9341895488548 0  454.692442514023 106.4695015766915 0  452.95672145825 104.0254501122942 0  451.1918197247282 101.6023865560754 0  449.3979910627008 99.20065928473332 0  447.5754933882043 96.82061361786421 0  445.7245887341124 94.46259175085058 0  443.8455432269008 92.12693272420489 0  441.9386270210269 89.81397234064673 0  440.0041142971544 87.52404316283014 0  438.0422831897421 85.25747442512349 0  436.0534157701649 83.01459201399018 0  434.0377979907771 80.79571840315057 0  431.9957196541004 78.60117261898753 0  429.9274743620823 76.43127018474144 0  427.8333594859367 74.28632308796901 0  425.7136761283247 72.16663973969838 0  423.5687290359737 70.07252488617331 0  421.3988265987173 68.00427960915448 0  419.2042808240311 65.962201298694 0  416.9854072196475 63.94658354201471 0  414.742524818212 61.95771614734943 0  412.4759560828471 59.99588505781063 0  410.1860269003736 58.06137234555209 0  407.8730665183855 56.15445615624427 0  405.5374074948106 54.27541066643354 0  403.1793856410161 52.424506037209 0  400.7993399855741 50.60200838545225 0  398.3976127114923 48.80817973503514 0  395.9745491514178 47.04327801218227 0  393.5304976958927 45.30755697591243 0  391.0658097308475 43.60126617398947 0  388.5808396359472 41.92465094154986 0  386.0759446832285 40.27795233078868 0  383.5514850239504 38.66140710249451 0  381.007823619977 37.07524768041412 0  378.4453262000283 35.51970212308933 0  375.8643611921311 33.99499408185753 0  373.2652996617874 32.50134276439832 0  370.6485153256615 31.03896294154612 0  368.0143843882092 29.60806485383361 0  365.3632855907917 28.2088542396306 0  362.6956001322776 26.84153228966238 0  360.0117115354126 25.50629557814059 0  357.3120057003284 24.20333609069269 0  354.596870775138 22.93284115916481 0  351.8666971306181 21.69499345021163 0  349.121877320111 20.48997094563194 0  346.3628059771881 19.31794689616012 0  343.5898798100648 18.17908981902079 0  340.8034974914794 17.07356345121562 0  338.0040596332272 16.00152673987083 0  335.1919687416658 14.9631338238211 0  332.3676291322006 13.95853400061199 0  329.5314468917599 12.98787171264172 0  326.6838297822748 12.05128651341042 0  323.8251872378164 11.14891306652726 0  320.9559302656854 10.28088111264219 0  318.076471404611 9.447315456473888 0  315.1872246503818 8.648335944454999 0  312.2886054290304 7.88405745654299 0  309.3810304838133 7.154589875203868 0  306.4649178487239 6.460038079298243 0  303.5406868253978 5.800501936910877 0  300.6087578339258 5.176076270093546 0  297.669552426172 4.586850858621602 0  294.7234931936628 4.0329104197954 0  291.7710037123022 3.514334597594029 0  288.8125084726372 3.031197949900047 0  285.8484328697872 2.58356994576863 0  282.8792030484304 2.171514940473202 0  279.905245932244 1.795092180408318 0  276.9269891008954 1.454
[...]
<PointData  Vectors="f_12"> 
<DataArray  type="Float64"  Name="f_12"  NumberOfComponents="3" format="ascii">0.0000000000000000e+00 3.6243453030543687e-01 9.4193312365036208e-01  0.0000000000000000e+00 6.4324025949396502e-01 6.1732928534949982e-01  0.0000000000000000e+00 1.5285079405290674e-02 2.6099914294053567e-01  0.0000000000000000e+00 8.9529581885944165e-01 1.9607321935069380e-01  0.0000000000000000e+00 1.5285832792340850e-02 2.5989579856356071e-01  0.0000000000000000e+00 1.5286660877962712e-02 2.5891420061056658e-01  0.0000000000000000e+00 1.5287468968036929e-02 2.5810160819543698e-01  0.0000000000000000e+00 1.5288221044562863e-02 2.5745550528058692e-01  0.0000000000000000e+00 1.5288839707469163e-02 2.5695726882826198e-01  0.0000000000000000e+00 1.5289309214660190e-02 2.5659380331976034e-01  0.0000000000000000e+00 1.5289593686400016e-02 2.5637577065507050e-01  0.0000000000000000e+00 1.5289686705337041e-02 2.5629361967013137e-01  0.0000000000000000e+00 1.5289576826550589e-02 2.5634820340516501e-01  0.0000000000000000e+00 1.5289270901893861e-02 2.5654207054604028e-01  0.0000000000000000e+00 1.5288793006032531e-02 2.5686766527253602e-01  0.0000000000000000e+00 1.5288138451645892e-02 2.5735099455103250e-01  0.0000000000000000e+00 1.5287380303092417e-02 2.5796413677612723e-01  0.0000000000000000e+00 1.5286545596767282e-02 2.5870618659285405e-01  0.0000000000000000e+00 1.5285681986632969e-02 2.5959796523551604e-01  0.0000000000000000e+00 1.5284873369958103e-02 2.6063307881516468e-01  0.0000000000000000e+00 1.5284177804474105e-02 2.6181321305272998e-01  0.0000000000000000e+00 1.5283700528152146e-02 2.6312805849466303e-01  0.0000000000000000e+00 1.5283582070208737e-02 2.6458128080867127e-01  0.0000000000000000e+00 1.5283838603626317e-02 2.6621500859870462e-01  0.0000000000000000e+00 1.5284698894196414e-02 2.6800332592210163e-01  0.0000000000000000e+00 1.5286272160624963e-02 2.6992021626159979e-01  0.0000000000000000e+00 1.5288651653907966e-02 2.7199267800539090e-01  0.0000000000000000e+00 1.5292064700875909e-02 2.7423390524282659e-01  0.0000000000000000e+00 1.5296642738644600e-02 2.7662929377171780e-01  0.0000000000000000e+00 1.5302623577714215e-02 2.7917486488867349e-01  0.0000000000000000e+00 1.5310270636178597e-02 2.8187126598524043e-01  0.0000000000000000e+00 1.5319427743631644e-02 2.8471550816731866e-01  0.0000000000000000e+00 1.5330548423115445e-02 2.8769482393373769e-01  0.0000000000000000e+00 1.5343811965268800e-02 2.9080894019221487e-01  0.0000000000000000e+00 1.5359411406601254e-02 2.9407682405629043e-01  0.0000000000000000e+00 1.5377443038342715e-02 2.9745955556477299e-01  0.0000000000000000e+00 1.5397878859503070e-02 3.0094189885757300e-01  0.0000000000000000e+00 1.5421039411227513e-02 3.0452901447770631e-01  0.0000000000000000e+00 1.5446964040835948e-02 3.0821724629967945e-01  0.0000000000000000e+00 1.5475832708637789e-02 3.1201177051574730e-01  0.0000000000000000e+00 1.5507372642375583e-02 3.1584614409924028e-01  0.0000000000000000e+00 1.5542781073563770e-02 3.1984201367698556e-01  0.0000000000000000e+00 1.5581037690151062e-02 3.2386993722573909e-01  0.0000000000000000e+00 1.5622575671934657e-02 3.2798886286120771e-01  0.0000000000000000e+00 1.5667723019477241e-02 3.3219538061456799e-01  0.0000000000000000e+00 1.5716741451932317e-02 3.3649653458404322e-01  0.0000000000000000e+00 1.5769794110683993e-02 3.4090930985403295e-01  0.0000000000000000e+00 1.5827375076248321e-02 3.4544392185265621e-01  0.0000000000000000e+00 1.5889991980946053e-02 3.5012160388591484e-01  0.0000000000000000e+00 1.5957991848113383e-02 3.5497220597671941e-01  0.0000000000000000e+00 1.6032474162990390e-02 3.6000800419066831e-01  0.0000000000000000e+00 1.6113886792833914e-02 3.6527223151639482e-01  0.0000000000000000e+00 1.6203411286608273e-02 3.7078745665041962e-01  0.0000000000000000e+00 1.6302131486539528e-02 3.7659346461545506e-01  0.0000000000000000e+00 1.6410581851880796e-02 3.8269079054716093e-01  0.0000000000000000e+00 1.6531054569536612e-02 3.8913063973371786e-01  0.0000000000000000e+00 1.6664160669992132e-02 3.9595134170992757e-01  0.0000000000000000e+00 1.6811392376878287e-02 4.0312929901609257e-01  0.0000000000000000e+00 1.6973593233723324e-02 4.1065956254782182e-01  0.0000000000000000e+00 1.7152645345685565e-02 4.1857613167172480e-01  0.0000000000000000e+00 1.7349635639111138e-02 4.2687130034965848e-01  0.0000000000000000e+00 1.7565266938110797e-02 4.3549051490849316e-01  0.0000000000000000e+00 1.7799829479443585e-02 4.4439511086724570e-01  0.0000000000000000e+00 1.8053712715188679e-02 4.5353929841918211e-01  0.0000000000000000e+00 1.8327670166103982e-02 4.6290304580364200e-01  0.0000000000000000e+00 1.8619350069410331e-02 4.7238454284368708e-01  0.0000000000000000e+00 1.8933800269525767e-02 4.8203878299825176e-01  0.0000000000000000e+00 1.9266516432177482e-02 4.9175668790857080e-01  0.0000000000000000e+00 1.9619752452902518e-02 5.0154594508156869e-01  0.0000000000000000e+00 1.9996544918370562e-02 5.1145167037461570e-01  0.0000000000000000e+00 2.0398687211750925e-02 5.2150169714002736e-01  0.0000000000000000e+00 2.0827523817027082e-02 5.3167563582676325e-01  0.0000000000000000e+00 2.1287894633888086e-02 5.4203839640367524e-01  0.0000000000000000e+00 2.1786571715332416e-02 5.5269543548660838e-01  0.0000000000000000e+00 2.2329858453183915e-02 5.6370648952295177e-01  0.0000000000000000e+00 2.2924687055295070e-02 5.7510243663132488e-01  0.0000000000000000e+00 2.3578256036687499e-02 5.8694561435114756e-01  0.0000000000000000e+00 2.4300679224016186e-02 5.9927118685725522e-01  0.0000000000000000e+00 2.5098907662368181e-02 6.1208516268238988e-01  0.0000000000000000e+00 2.5980734872493229e-02 6.2535750451184213e-01  0.0000000000000000e+00 2.6953626467892570e-02 6.3903099600712376e-01  0.0000000000000000e+00 2.8024500355602670e-02 6.5306656513399275e-01  0.0000000000000000e+00 2.9195822358070018e-02 6.6734010074430672e-01  0.0000000000000000e+00 3.0469942342797846e-02 6.8173534877557262e-01  0.0000000000000000e+00 3.1849619509748274e-02 6.9616091103831601e-01  0.0000000000000000e+00 3.3334536286151510e-02 7.1053460625830656e-01  0.0000000000000000e+00 3.4926509616915812e-02 7.2475738103557141e-01  0.0000000000000000e+00 3.6635270316836506e-02 7.3885102774756561e-01  0.0000000000000000e+00 3.8465996543805142e-02 7.5279250824136190e-01  0.0000000000000000e+00 4.0431382115883416e-02 7.6658695022635392e-01  0.0000000000000000e+00 4.2550096013889274e-02 7.8029288047654788e-01  0.0000000000000000e+00 4.4843099746924957e-02 7.9394800666173715e-01  0.0000000000000000e+00 4.7338225203861502e-02 8.0759831473642785e-01  0.0000000000000000e+00 5.0066433667900805e-02 8.2129089649604281e-01  0.0000000000000000e+00 5.3042588415571697e-02 8.3495240345816835e-01  0.0000000000000000e+00 5.6296488773867615e-02 8.4858440356006537e-01  0.0000000000000000e+00 5.9833685318118966e-02 8.6207635116811976e-01  0.0000000000000000e+00 6.3664191179615207e-02 8.7533172154208938e-01  0.0000000000000000e+00 6.7780810849037629e-02 8.8824231643025442e-01  0.0000000000000000e+00 7.2169185620048620e-02 9.0067699267582702e-01  0.0000000000000000e+00 7.6802105235579995e-02 9.1252622319989618e-01  0.0000000000000000e+00 8.1678487970502048e-02 9.2376041445891888e-01  0.0000000000000000e+00 8.6760204670475211e-02 9.3430367535778802e-01  0.0000000000000000e+00 9.2055672074468700e-02 9.4417413446579035e-01  0.0000000000000000e+00 9.7575231124777811e-02 9.5339976429316597e-01  0.0000000000000000e+00 1.0333518518233745e-01 9.6200244182815908e-01  0.0000000000000000e+00 1.0936103923373981e-01 9.7001592440576201e-01  0.0000000000000000e+00 1.1568637924498228e-01 9.7746060546408731e-01  0.0000000000000000e+00 1.2234572150860440e-01 9.8434437947767506e-01  0.0000000000000000e+00 1.2935511624607376e-01 9.9064538768996779e-01  0.0000000000000000e+00 1.3670945471347429e-01 9.9632103509369008e-01  0.0000000000000000e+00 1.4441005459083786e-01 1.0013415273289334e+00  0.0000000000000000e+00 1.5240789742067831e-01 1.0056569777640487e+00  0.0000000000000000e+00 1.6064809934141208e-01 1.0092339719304093e+00  0.0000000000000000e+00 1.6908390393889491e-01 1.0120667765731062e+00  0.0000000000000000e+00 1.7766058992856440e-01 1.0141630714033110e+00  0.0000000000000000e+00 1.8634634170678191e-01 1.0155452765359680e+00  0.0000000000000000e+00 1.9512087713075590e-01 1.0162494314046253e+00  0.0000000000000000e+00 2.0398366806738402e-01 1.0163077799597655e+00  0.0000000000000000e+00 2.1299679671481317e-01 1.0157370427518888e+00  0.0000000000000000e+00 2.2214745128120741e-01 1.0145713912075205e+00  0.0000000000000000e+00 2.3148950678530639e-01 1.0127962060157367e+00  0.0000000000000000e+00 2.4105225111180678e-01 1.0104153672691349e+00  0.0000000000000000e+00 2.5085456476217466e-01 1.0074147022653315e+00  0.0000000000000000e+00 2.6085421341719561e-01 1.0038141489990480e+00  0.0000000000000000e+00 2.7102381509723977e-01 9.9961770318818932e-01  0.0000000000000000e+00 2.8129989695908575e-01 9.9486398029743239e-01  0.0000000000000000e+00 2.9160945333151128e-01 9.8960315786401742e-01  0.0000000000000000e+00 3.0190105758187186e-01 9.8388638412552787e-01  0.0000000000000000e+00 3.1212056273027000e-01 9.7777189540216547e-01  0.0000000000000000e+00 3.2226009694324792e-01 9.7129347742053918e-01  0.0000000000000000e+00 3.3232405233324197e-01 9.6447635887156269e-01  0.0000000000000000e+00 3.4234650153393403e-01 9.5732033363712188e-01  0.0000000000000000e+00 3.5236995304908558e-01 9.4981205577052596e-01  0.0000000000000000e+00 3.7256966803184155e-01 9.3366742507552269e-01  0.0000000000000000e+00 3.8277994821064182e-01 9.2501640820409670e-01  0.0000000000000000e+00 3.9305368189131351e-01 9.1599335334985632e-01  0.0000000000000000e+00 4.0333867396208667e-01 9.0665190595683787e-01  0.0000000000000000e+00 4.1358322420401400e-01 8.9704911703889090e-01  0.0000000000000000e+00 4.2372680066093621e-01 8.8725633901516587e-01  0.0000000000000000e+00 4.3371654992069469e-01 8.7734306326167322e-01  0.0000000000000000e+00 4.4352294945688087e-01 8.6735861434597716e-01  0.0000000000000000e+00 4.5315643139751438e-01 8.5731163668524302e-01  0.0000000000000000e+00 4.6261027769230811e-01 8.4722986985418902e-01  0.0000000000000000e+00 4.7195727692204525e-01 8.3704575982095153e-01  0.0000000000000000e+00 4.8120429270312864e-01 8.2677033199943406e-01  0.0000000000000000e+00 4.9042296722635398e-01 8.1632816253737450e-01  0.0000000000000000e+00 4.9962182163854918e-01 8.0571563627554732e-01  0.0000000000000000e+00 5.0880499595590578e-01 7.9493339082244174e-01  0.0000000000000000e+00 5.1794303931908114e-01 7.8401946785591403e-01  0.0000000000000000e+00 5.2701488688163634e-01 7.7300794298541653e-01  0.0000000000000000e+00 5.3595918919849139e-01 7.6198014280849624e-01  0.0000000000000000e+00 5.4473738399895510e-01 7.5099436724944491e-01  0.0000000000000000e+00 5.5330204699281038e-01 7.4012316205777617e-01  0.0000000000000000e+00 5.6165712710209825e-01 7.2937447394469135e-01  0.0000000000000000e+00 5.6979956410523647e-01 7.1876441924462142e-01  0.0000000000000000e+00 5.7775398269331335e-01 7.0827254266971429e-01  0.0000000000000000e+00 5.8556347646377205e-01 6.9785139787302686e-01  0.0000000000000000e+00 5.9327071813959709e-01 6.8745125934149465e-01  0.0000000000000000e+00 6.0091112510930023e-01 6.7702935511009599e-01  0.0000000000000000e+00 6.0849508974553346e-01 6.6657513618782904e-01  0.0000000000000000e+00 6.1603328186255535e-01 6.5607774740426650e-01  0.0000000000000000e+00 6.2349492406027940e-01 6.4558352268876762e-01  0.0000000000000000e+00 6.3085880642787584e-01 6.3512619414630445e-01  0.0000000000000000e+00 6.3807972693593895e-01 6.2477603154090622e-01  0.0000000000000000e+00 6.4511220906309319e-01 6.1460488819350201e-01  0.0000000000000000e+00 6.5194222362859056e-01 6.0464127668668999e-01  0.0000000000000000e+00 6.5856392579384115e-01 5.9490171502218314e-01  0.0000000000000000e+00 6.6498589367761773e-01 5.8538141913234665e-01  0.0000000000000000e+00 6.7123682958259701e-01 5.7604445815920524e-01  0.0000000000000000e+00 6.7735181522632071e-01 5.6684440680915904e-01  0.0000000000000000e+00 6.8336234723877176e-01 5.5773749642209858e-01  0.0000000000000000e+00 6.8929484594663626e-01 5.4868767200775836e-01  0.0000000000000000e+00 6.9517908745283585e-01 5.3965175973765100e-01  0.0000000000000000e+00 7.0099830385368844e-01 5.3065715801264557e-01  0.0000000000000000e+00 7.0675268382618517e-01 5.2170591728705584e-01  0.0000000000000000e+00 7.1241511381878497e-01 5.1284233514985855e-01  0.0000000000000000e+00 7.1795771594490820e-01 5.0411361364918161e-01  0.0000000000000000e+00 7.2335460734017076e-01 4.9556429817691899e-01  0.0000000000000000e+00 7.2857707954617923e-01 4.8724383000918531e-01  0.0000000000000000e+00 7.3361609463623956e-01 4.7917168886073119e-01  0.0000000000000000e+00 7.3849006141763140e-01 4.7132310712821385e-01  0.0000000000000000e+00 7.4319644524217743e-01 4.6370580138710321e-01  0.0000000000000000e+00 7.4776958934316817e-01 4.5626829875728170e-01  0.0000000000000000e+00 7.5223257130988874e-01 4.4897578123659021e-01  0.0000000000000000e+00 7.5661463573719212e-01 4.4178299360094331e-01  0.0000000000000000e+00 7.6094975443919333e-01 4.3463541067329559e-01  0.0000000000000000e+00 7.6522936757879212e-01 4.2754857071553987e-01  0.0000000000000000e+00 7.6945768249185265e-01 4.2051649416056996e-01  0.0000000000000000e+00 7.7364261662927658e-01 4.1352726356829234e-01  0.0000000000000000e+00 7.7774423163705775e-01 4.0664837089078659e-01  0.0000000000000000e+00 7.8175473488329250e-01 3.9989485612568704e-01  0.0000000000000000e+00 7.8565484837344846e-01 3.9330093653454717e-01  0.0000000000000000e+00 7.8942984521236415e-01 3.8689370029616726e-01  0.0000000000000000e+00 7.9305940843807732e-01 3.8071010640324249e-01  0.0000000000000000e+00 7.9653913398152065e-01 3.7476024378220357e-01  0.0000000000000000e+00 7.9988809783975801e-01 3.6901393183731135e-01  0.0000000000000000e+00 8.0312096160039859e-01 3.6344811872517369e-01  0.0000000000000000e+00 8.0625282943693422e-01 3.5803865074152441e-01  0.0000000000000000e+00 8.0930311183361281e-01 3.5275352486378614e-01  0.0000000000000000e+00 8.1228793732622728e-01 3.4756595205818358e-01  0.0000000000000000e+00 8.1522709625041268e-01 3.4244242979427852e-01  0.0000000000000000e+00 8.1813615320255784e-01 3.3735640590022326e-01  0.0000000000000000e+00 8.2100152028752649e-01 3.3233213015237351e-01  0.0000000000000000e+00 8.2382208834011883e-01 3.2737218302151766e-01  0.0000000000000000e+00 8.2661132767394141e-01 3.2245324431508249e-01  0.0000000000000000e+00 8.2935727750866917e-01 3.1759687945686121e-01  0.0000000000000000e+00 8.3202403784095624e-01 3.1286720772929272e-01  0.0000000000000000e+00 8.3460153526574432e-01 3.0828308081405359e-01  0.0000000000000000e+00 8.3709316320693550e-01 3.0383957097430264e-01  0.0000000000000000e+00 8.3948421359685332e-01 2.9956402333800702e-01  0.0000000000000000e+00 8.4177279954134387e-01 2.9546103484707648e-01  0.0000000000000000e+00 8.4395843317970853e-01 2.9153269583587244e-01  0.0000000000000000e+00 8.4604640534614184e-01 2.8777070557662510e-01  0.0000000000000000e+00 8.4805014352898767e-01 2.8415197571643314e-01  0.0000000000000000e+00 8.4998029396559738e-01 2.8065823504179349e-01  0.0000000000000000e+00 8.5184686127542164e-01 2.7727216691027168e-01  0.0000000000000000e+00 8.5366133928319632e-01 2.7397359367536878e-01  0.0000000000000000e+00 8.5543377011095878e-01 2.7074478258952961e-01  0.0000000000000000e+00 8.5717267179408452e-01 2.6757063545106330e-01  0.0000000000000000e+00 8.5888398632182494e-01 2.6444060757909688e-01  0.0000000000000000e+00 8.6057145175681549e-01 2.6134809333863590e-01  0.0000000000000000e+00 8.6223505317544924e-01 2.5829330603799622e-01  0.0000000000000000e+00 8.6387271696810630e-01 2.5528022158507213e-01  0.0000000000000000e+00 8.6548106044094908e-01 2.5231524016551193e-01  0.0000000000000000e+00 8.6705413803063314e-01 2.4940952802431585e-01  0.0000000000000000e+00 8.6858691840127944e-01 2.4657263316025357e-01  0.0000000000000000e+00 8.7007249929424657e-01 2.4381763745989041e-01  0.0000000000000000e+00 8.7150542893358995e-01 2.4115503447107833e-01  0.0000000000000000e+00 8.7288157633907715e-01 2.3859293000495266e-01  0.0000000000000000e+00 8.7419655801165441e-01 2.3613997394711989e-01  0.0000000000000000e+00 8.7544610315437776e-01 2.3380469482683242e-01  0.0000000000000000e+00 8.7663753480978401e-01 2.3157392240851249e-01  0.0000000000000000e+00 8.7777413065518395e-01 2.2944204254141118e-01  0.0000000000000000e+00 8.7884784198708865e-01 2.2742459013429284e-01  0.0000000000000000e+00 8.7986455928187779e-01 2.2551100942460831e-01  0.0000000000000000e+00 8.8082169106457620e-01 2.2370663280071859e-01  0.0000000000000000e+00 8.8173838716834574e-01 2.2197590670167910e-01  0.0000000000000000e+00 8.8263350592529699e-01 2.2028370428853369e-01  0.0000000000000000e+00 8.8343631409746659e-01 2.1876332447257962e-01  0.0000000000000000e+00 8.8422307060941185e-01 2.1727166760264588e-01  0.0000000000000000e+00 8.8497296722014429e-01 2.1584810114293657e-01  0.0000000000000000e+00 8.8570547732864202e-01 2.1445601659818034e-01  0.0000000000000000e+00 8.8641400848176788e-01 2.1310802573986429e-01  0.0000000000000000e+00 8.8707627441598580e-01 2.1184644745301026e-01  0.0000000000000000e+00 8.8771919134793709e-01 2.1062050107770303e-01  0.0000000000000000e+00 8.8834325498518185e-01 2.0942936005430896e-01  0.0000000000000000e+00 8.8893882271233637e-01 2.0829144959818946e-01  0.0000000000000000e+00 8.8951052140817033e-01 2.0719809222344893e-01  0.0000000000000000e+00 8.9006187257889902e-01 2.0614269965208878e-01  0.0000000000000000e+00 8.9058532664857448e-01 2.0513977818086127e-01  0.0000000000000000e+00 8.9108935166887027e-01 2.0417328836969428e-01  0.0000000000000000e+00 8.9157712420022828e-01 2.0323730005634905e-01  0.0000000000000000e+00 8.9201751780731242e-01 2.0239125989429518e-01  0.0000000000000000e+00 8.9246534728160376e-01 2.0153066661920968e-01  0.0000000000000000e+00 8.9284583789972793e-01 2.0079844998350935e-01  0.0000000000000000e+00 8.9323000095534510e-01 2.0005903484087481e-01  0.0000000000000000e+00 8.9358410463071480e-01 1.9937696779404165e-01  0.0000000000000000e+00 8.9391554685333074e-01 1.9873819536838316e-01  0.0000000000000000e+00 8.9421111569718703e-01 1.9816811811292878e-01  0.0000000000000000e+00 8.9450302002221249e-01 1.9760509296441542e-01  0.0000000000000000e+00 8.9471178597597523e-01 1.9720152484048120e-01  0.0000000000000000e+00 8.9493589308314114e-01 1.9676875106641414e-01  0.0000000000000000e+00 8.9512488105588905e-01 1.9640353658522816e-01  0.0000000000000000e+00 8.9542547935564076e-01 1.9582239463687398e-01  0.0000000000000000e+00 8.9554051795744583e-01 1.9559997429666262e-01  0.0000000000000000e+00 8.9562568695109102e-01 1.9543524699232517e-01  0.0000000000000000e+00 8.9567446221599101e-01 1.9534077015938084e-01  0.0000000000000000e+00 8.9568926378477132e-01 1.9531190536230650e-01  0.0000000000000000e+00 8.9571046870757631e-01 1.9527111483009427e-01  0.0000000000000000e+00 8.9567067135491940e-01 1.9534786898821366e-01  0.0000000000000000e+00 8.9563952824660154e-01 1.9540837926486579e-01  0.0000000000000000e+00 8.9555373714908815e-01 1.9557416169820629e-01  0.0000000000000000e+00 8.9545211747320541e-01 1.9577067137938622e-01  0.0000000000000000e+00 8.9532693297166543e-01 1.9601272340179790e-01  0.0000000000000000e+00 8.9517409853199004e-01 1.9630814061472501e-01  0.0000000000000000e+00 8.9499465864177474e-01 1.9665484849862283e-01  0.0000000000000000e+00 8.9479740180327616e-01 1.9703595223854178e-01  0.0000000000000000e+00 8.9457900185700201e-01 1.9745777506556639e-01  0.0000000000000000e+00 8.9432671525008889e-01 1.9794465557830218e-01  0.0000000000000000e+00 8.9405861690854116e-01 1.9846191087585852e-01  0.0000000000000000e+00 8.9375997874186308e-01 1.9903767197018904e-01  0.0000000000000000e+00 8.9342590670443911e-01 1.9968121006321551e-01  0.0000000000000000e+00 8.9309395403038916e-01 2.0032059309850342e-01  0.0000000000