<?xml version="1.0"?>
<VTKFile type="UnstructuredGrid"  version="0.1"  >
<UnstructuredGrid>
<Piece  NumberOfPoints="7288" NumberOfCells="14083">
<Points>
<DataArray  type="Float64"  NumberOfComponents="3"  format="ascii">239.8 188 0  250.2 180 0  258.2 172.4 0  257 169.4 0  259.9 157.4 0  258.7 150.3 0  261 143.5 0  251.7 144.4 0  250 138.7 0  247 138.1 0  245.2 130.8 0  247.3 126.4 0  242.7 118.6 0  231.2 107.7 0  226 102.4 0  226.5 93.90000000000001 0  224.5 91.19999999999999 0  224.5 84.09999999999999 0  234.5 73.80000000000001 0  228.4 68.90000000000001 0  230 70 0  233.4 68 0  222.7 61.5 0  220.6 45.5 0  223.4 49.40000000000001 0  224 47 0  221.8 43.09999999999999 0  221 38.40000000000001 0  219.5 38.5 0  219.4 41.69999999999999 0  217.1 36.90000000000001 0  209.7 36 0  209.5 31.69999999999999 0  205.1 29.90000000000001 0  201.5 30.40000000000001 0  199.2 38.69999999999999 0  201.8 41.40000000000001 0  194.8 53.80000000000001 0  196.1 57.69999999999999 0  193 59 0  191.4 66.09999999999999 0  193.5 66.5 0  194.1 64.40000000000001 0  195.6 64.69999999999999 0  195.4 72.40000000000001 0  199.5 77.30000000000001 0  197.7 86.90000000000001 0  200.6 87.5 0  201.5 91 0  198 94.80000000000001 0  198.6 100 0  197.3 105.4 0  198 109.5 0  197 112.7 0  198.3 116.1 0  201.3 122 0  207.2 121 0  208.1 126.7 0  205.6 127.9 0  209.1 134.9 0  210.9 144.4 0  210.1 147.9 0  213 148.4 0  215.4 149.3 0  215.1 152.8 0  219.9 159.7 0  220.3 163.2 0  218.7 164.9 0  219.9 166.7 0  221.9 169.7 0  220 170.3 0  224.9 174.7 0  229.8 177.4 0  229.7 181 0  228 172.9 0  239 178 0  240.4 180 0  239 181.5 0  241.2 185.9 0  242.95 187.99 0  240.5875 187.9975 0  241.375 187.995 0  242.1625 187.9925 0  243.6090909090879 187.2636363636397 0  244.2681818181765 186.5372727272785 0  244.9272727272692 185.810909090913 0  245.5863636363531 185.0845454545571 0  246.245454545445 184.3581818181923 0  246.9045454545351 183.6318181818295 0  247.5636363636303 182.9054545454612 0  248.2227272727197 182.1790909090992 0  248.8818181818179 181.4527272727275 0  249.5409090909066 180.7263636363664 0  250.8666666666961 179.3666666666387 0  251.5333333334033 178.7333333332668 0  252.2000000000994 178.0999999999055 0  252.8666666668011 177.466666666539 0  253.5333333335083 176.8333333331671 0  254.2000000002044 176.1999999998058 0  254.8666666669005 175.5666666664445 0  255.5333333336077 174.9333333330727 0  256.2000000002685 174.2999999997449 0  256.8666666668457 173.6666666664966 0  257.5333333334283 173.033333333243 0  257.9000000000077 171.6500000000191 0  257.6000000000015 170.9000000000038 0  257.2999999999954 170.1499999999885 0  257.2230769230778 168.4769230769195 0  257.4461538461543 167.5538461538442 0  257.6692307692309 166.6307692307688 0  257.8923076923074 165.7076923076935 0  258.115384615384 164.7846153846181 0  258.3384615384605 163.8615384615427 0  258.5615384615395 162.9384615384572 0  258.784615384616 162.0153846153819 0  259.0076923076926 161.0923076923065 0  259.2307692307691 160.1692307692311 0  259.4538461538457 159.2461538461558 0  259.6769230769222 158.3230769230804 0  259.750000000001 156.512500000006 0  259.6000000000014 155.6250000000082 0  259.4500000000029 154.7375000000176 0  259.3000000000018 153.8500000000108 0  259.1500000000007 152.962500000004 0  259.0000000000004 152.0750000000026 0  258.849999999999 151.187499999994 0  258.9875000000052 149.4499999999846 0  259.275000000002 148.5999999999941 0  259.5624999999954 147.7500000000135 0  259.849999999995 146.900000000015 0  260.1374999999945 146.0500000000164 0  260.4249999999913 145.2000000000259 0  260.7124999999948 144.3500000000154 0  260.0700000000398 143.5899999999961 0  259.1400000000573 143.6799999999944 0  258.2100000000351 143.7699999999966 0  257.2800000000262 143.8599999999975 0  256.350000000011 143.9499999999989 0  255.4199999999881 144.0400000000011 0  254.4899999999726 144.1300000000026 0  253.5599999999944 144.2200000000005 0  252.6300000000009 144.3099999999999 0  251.4166666666658 143.4499999999971 0  251.1333333333388 142.5000000000182 0  250.8500000000015 141.5500000000051 0  250.5666666666612 140.5999999999818 0  250.2833333333342 139.6500000000029 0  249.2500000000005 138.5500000000001 0  248.5000000000011 138.4000000000002 0  247.7499999999995 138.2499999999999 0  246.7750000000005 137.1875000000023 0  246.5500000000021 136.2750000000085 0  246.3250000000036 135.3625000000147 0  246.1000000000042 134.450000000017 0  245.8750000000022 133.5375000000088 0  245.650000000003 132.6250000000124 0  245.4250000000046 131.7125000000187 0  245.619999999996 129.9200000000084 0  246.0399999999992 129.0400000000017 0  246.4599999999987 128.1600000000028 0  246.8800000000001 127.2799999999997 0  246.8399999999988 125.6199999999979 0  246.3799999999984 124.8399999999973 0  245.9199999999991 124.0599999999985 0  245.4600000000036 123.2800000000062 0  245.0000000000049 122.5000000000082 0  244.5400000000036 121.7200000000062 0  244.0800000000033 120.9400000000056 0  243.6200000000016 120.1600000000027 0  243.1600000000012 119.3800000000021 0  241.9812499999996 117.9187499999997 0  241.2625000000007 117.2375000000007 0  240.5437500000017 116.5562500000017 0  239.8250000000041 115.875000000004 0  239.1062500000066 115.1937500000063 0  238.3875000000076 114.5125000000072 0  237.6687500000087 113.8312500000082 0  236.9500000000083 113.1500000000079 0  236.231250000008 112.4687500000076 0  235.512500000009 111.7875000000085 0  234.7937500000045 111.1062500000043 0  234.0750000000042 110.4250000000039 0  233.3562500000066 109.7437500000062 0  232.6375000000021 109.062500000002 0  231.9187500000031 108.381250000003 0  230.5500000000004 107.0375000000004 0  229.9000000000021 106.3750000000021 0  229.2500000000038 105.7125000000039 0  228.6000000000041 105.0500000000042 0  227.9500000000018 104.3875000000018 0  227.2999999999952 103.7249999999951 0  226.6500000000024 103.0625000000024 0  226.0555555555555 101.4555555555556 0  226.1111111111111 100.5111111111111 0  226.1666666666667 99.56666666666668 0  226.2222222222222 98.62222222222223 0  226.2777777777778 97.67777777777778 0  226.3333333333333 96.73333333333335 0  226.3888888888889 95.78888888888889 0  226.4444444444445 94.84444444444446 0  226 93.22499999999999 0  225.5000000000026 92.55000000000358 0  225.0000000000026 91.87500000000358 0  224.5 90.31250000000068 0  224.5 89.4250000000097 0  224.5 88.53750000001317 0  224.5 87.65000000001388 0  224.5 86.76250000001457 0  224.5 85.87500000001248 0  224.5 84.9874999999993 0  225.1666666666659 83.41333333333409 0  225.8333333333319 82.72666666666818 0  226.4999999999978 82.04000000000228 0  227.1666666666649 81.35333333333514 0  227.8333333333301 80.66666666667 0  228.4999999999942 79.980000000006 0  229.1666666666601 79.2933333333401 0  229.8333333333316 78.60666666666847 0  230.4999999999975 77.92000000000257 0  231.1666666666644 77.23333333333572 0  231.8333333333295 76.54666666667057 0  232.4999999999972 75.86000000000287 0  233.1666666666681 75.17333333333181 0  233.8333333333368 74.48666666666306 0  233.7499999999995 73.16666666666629 0  233.0000000000018 72.53333333333488 0  232.2500000000014 71.90000000000116 0  231.5000000000009 71.26666666666743 0  230.7500000000005 70.63333333333372 0  229.233333333333 68.75000000000006 0  230.0666666666665 68.60000000000004 0  230.8999999999995 68.45000000000009 0  231.7333333333325 68.30000000000015 0  232.566666666667 68.14999999999995 0  232.5499999999897 68.50000000000607 0  231.7 69 0  230.8500000000103 69.49999999999393 0  227.8300000000008 68.16000000000106 0  227.2600000000064 67.42000000000837 0  226.6900000000077 66.68000000001001 0  226.1200000000024 65.94000000000314 0  225.5500000000108 65.20000000001409 0  224.9800000000098 64.46000000001268 0  224.4100000000007 63.72000000000098 0  223.8399999999971 62.97999999999621 0  223.2699999999993 62.23999999999915 0  222.753846153846 60.56923076923239 0  222.8076923076921 59.63846153846478 0  222.8615384615381 58.70769230769827 0  222.9153846153842 57.77692307693071 0  222.9692307692302 56.84615384616315 0  223.0230769230761 55.91538461539836 0  223.0769230769224 54.98461538462665 0  223.1307692307688 54.05384615385345 0  223.184615384615 53.12307692308312 0  223.2384615384611 52.19230769231556 0  223.2923076923071 51.26153846154906 0  223.3461538461533 50.33076923077847 0  222.8400000000024 48.62000000000327 0  222.2800000000047 47.84000000000661 0  221.7200000000005 47.06000000000071 0  221.1600000000003 46.28000000000039 0  221.4500000000116 45.87500000000512 0  222.3 46.25 0  223.1499999999884 46.62499999999488 0  223.5600000000055 46.22000000000981 0  223.1199999999987 45.43999999999767 0  222.6800000000061 44.66000000001075 0  222.2399999999969 43.8799999999944 0  221.6400000000004 42.16000000000253 0  221.4800000000009 41.22000000000548 0  221.3200000000014 40.28000000000801 0  221.1600000000009 39.34000000000556 0  220.25 38.45 0  219.4749999999999 39.30000000000165 0  219.45 40.09999999999999 0  219.425 40.90000000000112 0  219.0166666666641 40.89999999999463 0  218.6333333333375 40.10000000000875 0  218.2500000000016 39.30000000000339 0  217.8666666666635 38.49999999999351 0  217.483333333337 37.70000000000762 0  216.1750000000165 36.78750000000201 0  215.2500000000275 36.67500000000335 0  214.3250000000385 36.56250000000469 0  213.4000000000277 36.45000000000337 0  212.4750000000059 36.33750000000072 0  211.5499999999838 36.22499999999803 0  210.6249999999835 36.11249999999799 0  209.6600000000001 35.14000000000318 0  209.6200000000001 34.28000000000268 0  209.5800000000001 33.42000000000284 0  209.5399999999998 32.55999999999681 0  208.6200000000117 31.34000000000476 0  207.7400000000138 30.98000000000564 0  206.8600000000162 30.62000000000662 0  205.9800000000174 30.26000000000711 0  204.2000000000054 30.02499999999925 0  203.2999999999946 30.15000000000076 0  202.3999999999945 30.27500000000076 0  201.2444444444438 31.32222222222468 0  200.9888888888895 32.24444444
[...]
<PointData  Vectors="f_12"> 
<DataArray  type="Float64"  Name="f_12"  NumberOfComponents="3" format="ascii">6.2097578453767233e-01 6.9532175821394449e-01 1.2985150983599653e-01  6.7692532358960378e-01 7.5965809804280460e-01 1.9410030829867428e-01  7.0539587857242136e-01 7.8404923793461823e-01 2.1976554023782657e-01  7.1423951590843593e-01 7.8383161047120475e-01 2.3644456327672184e-01  7.3922232314023273e-01 7.8737038701684781e-01 2.7323964273411150e-01  7.4474595525126419e-01 7.8376181052998817e-01 2.8720872765953470e-01  7.4084636951161065e-01 7.8961937422198814e-01 2.7222583125763700e-01  7.6560896499613829e-01 7.4051798070668706e-01 3.8364536774515529e-01  7.7265314947644703e-01 6.9919939221520311e-01 4.5723585578937981e-01  7.6462155955909816e-01 6.7599178476206145e-01 4.8145232971009638e-01  6.8373274309824128e-01 6.3479940588859385e-01 3.7802983700861992e-01  6.2648811137276195e-01 6.1567263107826520e-01 2.4014135410510140e-01  5.3932415945722023e-01 4.1541694706260185e-01 1.3004859581690950e-01  4.9953397633290431e-01 1.1001218436192865e-01 1.9633765708656942e-01  5.4812261696981124e-01 9.0348685191401670e-02 4.1765361366813475e-01  6.1698056773330445e-01 1.3009649233672207e-01 6.8678814665998478e-01  6.4236164666866646e-01 1.7164514161199351e-01 7.5145165503207934e-01  7.2076301325969094e-01 4.7164266624246121e-01 6.7877938055669540e-01  6.6783698768266853e-01 7.6168802314497275e-01 1.7038004617828525e-01  6.6217584521197081e-01 7.5934935777351420e-01 1.5965428955991282e-01  6.6225419158679466e-01 7.5919559530671255e-01 1.6007828322079284e-01  6.5548426536989801e-01 7.5539011310730164e-01 1.4850328591531742e-01  6.5117197523437198e-01 7.4976671679192386e-01 1.4443079087851440e-01  6.2613492756390909e-01 7.1185598099459502e-01 1.2409762228835358e-01  6.3444209861078593e-01 7.2542027983797330e-01 1.3080695634612030e-01  6.2385208175020512e-01 7.0807622005542137e-01 1.2218662148337157e-01  6.2332401832377959e-01 7.0711695250051421e-01 1.2180236718286919e-01  6.2098282744673483e-01 7.0308284370510266e-01 1.1986518650717895e-01  6.2098946792598531e-01 7.0309391688132550e-01 1.1987117962062110e-01  6.2217542956310612e-01 7.0508156933128219e-01 1.2092172844230906e-01  6.1917273341230250e-01 6.9959237467342572e-01 1.1871031397108936e-01  6.1586276890056890e-01 6.9301161712067338e-01 1.1665096818439299e-01  6.1224477480964601e-01 6.8597208591935421e-01 1.1405924987232469e-01  6.1145589107115894e-01 6.8439909029798929e-01 1.1350383371067814e-01  6.1152647299485807e-01 6.8452485788744988e-01 1.1356988315780431e-01  6.1658824080260599e-01 6.9412449856184122e-01 1.1748814357828051e-01  6.2318556981358164e-01 7.0588620362380217e-01 1.2268648063675311e-01  6.5384137939981124e-01 7.5222127516091752e-01 1.4789850058880455e-01  6.6043419131286774e-01 7.5995659060603948e-01 1.5401269705503090e-01  6.6432114627708938e-01 7.6431010551059519e-01 1.5765669706612176e-01  6.7152376299954641e-01 7.7179846252181405e-01 1.6446094572961492e-01  6.7123329239355034e-01 7.7153725346054469e-01 1.6414814214023840e-01  6.6706701772209454e-01 7.6724209853109859e-01 1.6023423525395444e-01  6.6827743971872444e-01 7.6852342693927467e-01 1.6134241383242695e-01  6.7457774025322970e-01 7.7454651123892959e-01 1.6776795164737168e-01  6.9943889028251582e-01 7.7735727281855727e-01 2.1673033762004515e-01  7.4738728862793713e-01 7.1376133662852881e-01 3.9987386194815039e-01  7.5221625790924451e-01 6.5504192255165095e-01 4.9339160895296014e-01  7.5439144764319388e-01 4.9031099471418249e-01 7.1896839909929777e-01  7.5153931144517594e-01 4.1048855311976773e-01 8.0810860621012226e-01  7.1876871091766514e-01 3.0181393902618486e-01 8.5413427609387715e-01  6.6342889504324798e-01 1.8601273333788440e-01 8.0570028518953596e-01  6.0955078530873286e-01 1.2399559448650413e-01 6.5807440552486507e-01  5.7704490644543793e-01 9.9834636198324389e-02 5.4181139705473713e-01  5.4945726249403692e-01 9.2660601108763729e-02 4.2498752768191467e-01  5.1556553415793371e-01 1.0028463157378502e-01 2.7164764343720771e-01  5.0992017952609092e-01 1.9027342182863063e-01 1.8840656882994178e-01  5.3499112805630744e-01 4.1621369148674081e-01 1.1407520744134117e-01  5.4059327249232825e-01 4.5160145907002952e-01 1.0542829832173023e-01  5.8817516304017192e-01 5.9897967927050455e-01 1.3149401758507359e-01  6.5839857865458129e-01 7.4163451425450078e-01 1.7376505774996376e-01  6.6529300279367609e-01 7.5231168184276720e-01 1.7700226371404401e-01  6.7408692328180597e-01 7.5719152089214337e-01 1.9062854272210558e-01  6.9674308783063510e-01 7.6817669047328263e-01 2.2446500390359089e-01  7.1392536171732635e-01 7.7866525281105858e-01 2.4382668228109758e-01  7.2783404587223044e-01 7.7921213175539428e-01 2.6764098872626862e-01  7.1647682240668831e-01 7.8280037827807381e-01 2.4211781409171884e-01  7.0976870902700850e-01 7.8520121453886438e-01 2.2634069967413895e-01  7.0659289229961619e-01 7.8548840515261664e-01 2.1990855018511085e-01  7.0197785678257385e-01 7.8532379419740417e-01 2.1130520304504194e-01  7.0119878073793940e-01 7.8616559901455729e-01 2.0858148712239200e-01  6.9827763196893955e-01 7.8399789609852588e-01 2.0597517384072650e-01  6.9184131285906891e-01 7.7872091210609107e-01 2.0029068537168537e-01  6.8610034339714965e-01 7.7855781437633320e-01 1.8851200636617751e-01  7.0373539948839647e-01 7.8014978459463180e-01 2.2225445475740047e-01  6.9364497955022386e-01 7.6256683208451481e-01 2.2647619027369972e-01  6.6619261128928076e-01 7.4272873176729359e-01 1.9019757584304711e-01  6.5131995933706943e-01 7.3066500034263138e-01 1.6958083519481609e-01  6.2735620974826900e-01 7.0391010555278954e-01 1.3771144601535934e-01  6.2376964721156369e-01 6.9932167375337029e-01 1.3314415541583460e-01  6.2132213338319453e-01 6.9581301607003732e-01 1.3026601033447699e-01  6.2208672977466839e-01 6.9690669682632356e-01 1.3117265730116087e-01  6.2298134592753929e-01 6.9819476977195660e-01 1.3222181180326206e-01  6.2568791458703454e-01 7.0198078544250386e-01 1.3541899709807315e-01  6.2907822606445452e-01 7.0657851579322772e-01 1.3944656863391303e-01  6.3339618173839674e-01 7.1225813764989321e-01 1.4457444181930443e-01  6.3835419024838447e-01 7.1853347772313392e-01 1.5045276704527871e-01  6.4376358677839263e-01 7.2509042325196471e-01 1.5684444092912411e-01  6.4940840371310582e-01 7.3162810381571775e-01 1.6345724037989845e-01  6.5519110429495886e-01 7.3800582194559250e-01 1.7017394121641077e-01  6.6093446105512654e-01 7.4405988042204596e-01 1.7673789154681641e-01  6.6648259361855333e-01 7.4967571320480320e-01 1.8292153658819413e-01  6.7182570530566843e-01 7.5486056995401485e-01 1.8874011419340903e-01  6.8126730445987338e-01 7.6369286007471127e-01 1.9843023237633556e-01  6.8505688701860756e-01 7.6719314126773963e-01 2.0199508853389425e-01  6.8845349459660066e-01 7.7027849171133989e-01 2.0506086530986262e-01  6.9148701446963623e-01 7.7300115108618161e-01 2.0768258150877802e-01  6.9417112417377980e-01 7.7539422391981105e-01 2.0989359994821083e-01  6.9653444918631491e-01 7.7749090737935611e-01 2.1175375884506900e-01  6.9864674625446466e-01 7.7930482158151493e-01 2.1342048200790203e-01  7.0052669292773018e-01 7.8084655903024214e-01 2.1494498794039268e-01  7.0217837975405695e-01 7.8211707768877126e-01 2.1635687638070400e-01  7.0360934639656925e-01 7.8310099821245138e-01 2.1771359310908031e-01  7.0475460820120917e-01 7.8376701254685066e-01 2.1895156025441245e-01  7.0620663503995063e-01 7.8407118131773590e-01 2.2125853282620445e-01  7.0797572554441734e-01 7.8404076087703090e-01 2.2460988855751757e-01  7.1055840784403212e-01 7.8394059219797407e-01 2.2954203799118561e-01  7.1849936597574293e-01 7.8389720543612651e-01 2.4403411834383881e-01  7.2188624573839288e-01 7.8405653936508890e-01 2.4979644923684738e-01  7.2481735701271321e-01 7.8427963109338061e-01 2.5455437800958908e-01  7.2739011445367330e-01 7.8455598992535469e-01 2.5852273585691155e-01  7.2963987755461035e-01 7.8488207788571251e-01 2.6179381646619254e-01  7.3159195545383193e-01 7.8525067032164708e-01 2.6444537707639260e-01  7.3326805737296341e-01 7.8565203951087625e-01 2.6654879901287598e-01  7.3470101363735107e-01 7.8606516964297801e-01 2.6820696937199268e-01  7.3590729943085864e-01 7.8647999390069678e-01 2.6947532449800909e-01  7.3694825604174841e-01 7.8683553716617849e-01 2.7055542216738365e-01  7.3783283316558379e-01 7.8713289224854954e-01 2.7146872703460267e-01  7.3859744312472708e-01 7.8732515800616798e-01 2.7235033274470466e-01  7.3993705619687156e-01 7.8710519522475397e-01 2.7474295943744659e-01  7.4078981784939890e-01 7.8666220668291387e-01 2.7672956496232376e-01  7.4166313450096166e-01 7.8612894822113455e-01 2.7888461589909597e-01  7.4252810209689579e-01 7.8550703586408177e-01 2.8116096464384760e-01  7.4332132184700805e-01 7.8487837969880181e-01 2.8333583557395342e-01  7.4398366918995862e-01 7.8433075415600795e-01 2.8518444691749401e-01  7.4448522519727711e-01 7.8391169056120502e-01 2.8658807224292909e-01  7.4442237803760358e-01 7.8440705623468165e-01 2.8572307054605134e-01  7.4394007910928017e-01 7.8517600966657219e-01 2.8380217906211141e-01  7.4328925963350378e-01 7.8614504851354172e-01 2.8131640968047855e-01  7.4260517914384760e-01 7.8712863566862401e-01 2.7875534447347688e-01  7.4194211883940786e-01 7.8806842516565179e-01 2.7629282178455111e-01  7.4137853608048332e-01 7.8886357323451728e-01 2.7420478674589688e-01  7.4098680766988934e-01 7.8941842462634360e-01 2.7275021197734967e-01  7.4104323248815085e-01 7.8932801827642862e-01 2.7297439143311436e-01  7.4171162431748960e-01 7.8832034619164382e-01 2.7554112356811572e-01  7.4289180932440879e-01 7.8649461594053360e-01 2.8013600420696355e-01  7.4459298835651833e-01 7.8377729589689649e-01 2.8687429992004410e-01  7.4680772081593083e-01 7.8009106505069370e-01 2.9584671428683262e-01  7.4949594603306480e-01 7.7539017529868959e-01 3.0704430083779954e-01  7.5261745179991835e-01 7.6960247202324639e-01 3.2049837841483381e-01  7.5615310499962818e-01 7.6257116752535281e-01 3.3640284882179666e-01  7.6020817850905043e-01 7.5375528767437006e-01 3.5572015301981469e-01  7.6987207859546714e-01 7.2766752157385794e-01 4.0933472448285357e-01  7.7188343665426584e-01 7.1945720398408053e-01 4.2476944528250671e-01  7.7290885714036184e-01 7.1259602951097512e-01 4.3678442750362734e-01  7.7319593821576704e-01 7.0684456060445044e-01 4.4609767297726483e-01  7.7301405116268862e-01 7.0215544830166510e-01 4.5313611547278387e-01  7.7219603508906998e-01 6.9715492595475592e-01 4.5977624330120337e-01  7.7101800700713530e-01 6.9276112575419135e-01 4.6493367139718833e-01  7.6884551870089357e-01 6.8622181375632563e-01 4.7192534092720728e-01  7.5729200462714641e-01 6.6292157322034040e-01 4.9021386992834387e-01  7.5027048649121830e-01 6.5382564143282051e-01 4.9260170794022351e-01  7.4263353162897050e-01 6.4681468427964195e-01 4.8992549689660586e-01  7.3412517083067463e-01 6.4165527657443355e-01 4.8187265907688970e-01  7.2453863447421551e-01 6.3828510597070420e-01 4.6780848666394981e-01  7.1361106406377439e-01 6.3644440918320555e-01 4.4716731211144189e-01  7.0076826626193889e-01 6.3560653822594926e-01 4.1889635866734243e-01  6.6604788858237207e-01 6.3290687656424238e-01 3.3409667307467572e-01  6.5228864058206282e-01 6.2970598755608198e-01 2.9999218921898069e-01  6.4078212274426782e-01 6.2510828406168029e-01 2.7227371105009351e-01  6.3174367605158932e-01 6.1981606648318832e-01 2.5148643143025495e-01  6.2198478271085100e-01 6.1032170468803437e-01 2.3181131594349033e-01  6.1471477128823870e-01 6.0004793899274766e-01 2.1952495003129799e-01  6.0589227294144177e-01 5.8563917619262762e-01 2.0580139623519314e-01  5.9602974014812549e-01 5.6729137071809899e-01 1.9164903299280939e-01  5.8575493592526717e-01 5.4566996584103411e-01 1.7813330565311097e-01  5.7533341760659429e-01 5.2117488203550455e-01 1.6552453017161023e-01  5.6509114044122832e-01 4.9457530179417863e-01 1.5412009583519531e-01  5.5541599657947516e-01 4.6700352493060526e-01 1.4428328664650378e-01  5.4661178422333101e-01 4.3974923006917732e-01 1.3612661186242755e-01  5.3219907883491790e-01 3.8943559805040878e-01 1.2504671472084122e-01  5.2501558372809431e-01 3.6108962992867794e-01 1.2088088658661422e-01  5.1839585476657979e-01 3.3284543080004042e-01 1.1793285275019937e-01  5.1242744159210507e-01 3.0525110595256066e-01 1.1617018109321170e-01  5.0720229482608370e-01 2.7894425835041686e-01 1.1559056532899992e-01  5.0279505884214493e-01 2.5440922254660991e-01 1.1623253550272612e-01  4.9917730351614575e-01 2.3171604666215662e-01 1.1806376909888151e-01  4.9634756239959166e-01 2.1099000763219911e-01 1.2110709392840208e-01  4.9430805611478229e-01 1.9237697747662405e-01 1.2539077787072758e-01  4.9300792369099644e-01 1.7566292888867313e-01 1.3096745479915786e-01  4.9241485032529547e-01 1.6076469405494853e-01 1.3787874716143067e-01  4.9251878941483690e-01 1.4768945642218595e-01 1.4618662041492564e-01  4.9327569684124301e-01 1.3606135774744135e-01 1.5605838738762398e-01  4.9471814234728445e-01 1.2617787900339342e-01 1.6755478011936736e-01  4.9679713442288270e-01 1.1749695035310043e-01 1.8091827177261771e-01  5.0270043931755459e-01 1.0405368624891789e-01 2.1278506780905598e-01  5.0641273837100031e-01 9.9189443933681870e-02 2.3105226574543511e-01  5.1070182102168415e-01 9.5295721706480402e-02 2.5139096465601118e-01  5.1570441184352511e-01 9.2343837034090978e-02 2.7446094069563953e-01  5.2146157670861293e-01 9.0331904301234014e-02 3.0047309912154535e-01  5.2822569812018627e-01 8.9245926584092306e-02 3.3056607023525048e-01  5.3653683096357474e-01 8.9150988365479661e-02 3.6712386422934079e-01  5.6059471205005917e-01 9.2945446405606147e-02 4.7138207873132609e-01  5.7041821420992478e-01 9.6017003721024730e-02 5.1291957529245791e-01  5.7920955258291262e-01 9.9745690819743799e-02 5.4909027210244876e-01  5.8729806506803850e-01 1.0411991429048081e-01 5.8125470329529527e-01  5.9476468140080407e-01 1.0904495531843297e-01 6.0983206950732038e-01  6.0159408220731014e-01 1.1438961195077589e-01 6.3489707632246739e-01  6.0774216567057904e-01 1.1998079920927940e-01 6.5647537372354459e-01  6.1307716340904361e-01 1.2552390250955311e-01 6.7434444322776155e-01  6.2038968538683181e-01 1.3472215594951401e-01 6.9687668379684120e-01  6.2570720548866476e-01 1.4260229276517811e-01 7.1169814643842744e-01  6.3263127773136130e-01 1.5393024755932153e-01 7.2940747327972877e-01  6.5362384887245284e-01 1.9485014413573498e-01 7.7260945702707207e-01  6.6362764770829274e-01 2.1843981230815637e-01 7.8649098702103570e-01  6.7347644136332718e-01 2.4512535970817007e-01 7.9441642799165868e-01  6.8337751797881441e-01 2.7609888763130669e-01 7.9556515383283288e-01  6.9320202717415169e-01 3.1217696296160952e-01 7.8815440445562879e-01  7.0281812805435728e-01 3.5459104270291564e-01 7.6969534608568202e-01  7.1186343019575438e-01 4.0460211579276678e-01 7.3699559830229278e-01  7.2616179057981722e-01 5.3899810823640260e-01 6.0633441519748654e-01  7.2739863046447639e-01 5.8843792561249209e-01 5.4365500167615255e-01  7.2605388688348249e-01 6.2923477814446471e-01 4.8490798730967188e-01  7.2271495372677808e-01 6.6310218305685620e-01 4.3040808758698645e-01  7.1783469657188226e-01 6.9075926869515658e-01 3.8087205974493127e-01  7.1183582333070727e-01 7.1276270696874966e-01 3.3678680549706796e-01  7.0512459816176765e-01 7.2962697608420735e-01 2.9842386549893890e-01  6.9810557664980732e-01 7.4195264454221543e-01 2.6579317479651049e-01  6.9116319919828995e-01 7.5049077112846219e-01 2.3859845498583232e-01  6.8465808285764496e-01 7.5596741197213424e-01 2.1654134906273997e-01  6.7890032509043352e-01 7.5916660459417840e-01 1.9918547590992824e-01  6.7417059904184362e-01 7.6078312915210822e-01 1.8621324879679813e-01  6.7068062464766676e-01 7.6144932154357681e-01 1.7728847610413065e-01  6.6855375201361233e-01 7.6165038925799500e-01 1.7209466514340999e-01  6.6784526161116697e-01 7.6164587161638808e-01 1.7044621512532060e-01  6.6762324124614980e-01 7.6152519947117747e-01 1.7006140639335579e-01  6.6711097294116695e-01 7.6130099867994272e-01 1.6911224867194724e-01  6.6627806748804108e-01 7.6094337775278797e-01 1.6755845191071328e-01  6.6491220437964771e-01 7.6035194939322115e-01 1.6501457375315559e-01  6.6114852360290011e-01 7.5878587502770212e-01 1.5793611140988734e-01  6.5958889266414944e-01 7.5791861998507970e-01 1.5528138916982331e-01  6.5793541741071482e-01 7.5695425607265265e-01 1.5249815044110451e-01  6.5667155428461355e-01 7.5616825940321020e-01 1.5041814059904435e-01  6.5586792627306412e-01 7.5564629303354081e-01 1.4911737352183271e-01  6.5594523329223997e-01 7.5569765382724585e-01 1.4924136715608513e-01  6.5702894711239124e-01 7.5639529398856886e-01 1.5100186216665787e-01  6.5884685436241175e-01 7.5747780732015058e-01 1.5404447235646523e-01  6.6154204577457743e-01 7.5916818979610123e-01 1.5831734395935540e-01  6.6048528576835974e-01 7.5866911175781193e-01 1.5636465414275352e-01  6.5930298777104035e-01 7.5798359673666937e-01 1.5433463647279227e-01  6.5811019531490389e-01 7.5717156375864825e-01 1.5242737028089590e-01  6.5695532191690298e-01 7.5626231676206856e-01 1.5072320632261357e-01  6.5585943760012622e-01 7.5528051356861581e-01 1.4924393264170030e-01  6.5481007279602699e-01 7.5422087676072069e-01 1.4796614644857059e-01  6.5376042339109963e-01 7.5304459645573485e-01 1.4682317169555864e-01  6.5263543433851823e-01 7.5166960180397202e-01 1.4572876739361029e-01  6.4954269741731518e-01 7.4757706826544723e-01 1.4305499771280247e-01  6.4818557445807456e-01 7.4570304223662398e-01 1.4194904385322396e-01  6.4689269706574271e-01 7.4388428133377227e-01 1.4091372195728696e-01  6.4561013424282199e-01 7.4205841305927245e-01 1.3988949789072683e-01  6.4431595926156593e-01 7.4019880709644559e-01 1.3885223245299200e-01  6.4299868563881768e-01 7.3829063917175908e-01 1.3778909892241711e-01  6.4165930443362296e-01 7.3633378881996570e-01 1.3670111373591093e-01  6.4030631164329521e-01 7.3433821908349839e-01 1.3559686402060819e-01  6.3895566514823665e-01 7.3232530055873235e-01 1.3449173301975409e-01  6.3763314636591917e-01 7.3033218051288662e-01 1.3340901286832940e-01  6.3637637070022735e-01 7.2841613299562769e-01 1.3238157391344119e-01  6.3524834871923208e-01 7.2667655057410807e-01 1.3146211821306816e-01  6.3359082523005916e-01 7.2407160425748196e-01 1.3012146309274464e-01  6.3237349468800763e-01 7.2212110846574007e-01 1.2914301495833166e-01  6.3087701455339240e-01 7.1969469481634007e-01 1.2793930253962188e-01  6.2900466824129520e-01 7.1662045100221328e-01 1.2642837566922252e-01  6.2457136821999437e-01 7.0926225793791386e-01 1.2279933976934349e-01  6.2408590920495133e-01 7.0846000153476263e-01 1.2238920393141603e-01  6.2390803740754508e-01 7.0816779520701445e-01 1.2223564571982651e-01  6.2390442913694966e-01 7.0816185804303677e-01 1.2223251712330768e-01  6.2400699561555495e-01 7.0832784773726565e-01 1.2232374655661526e-01  6.2405806026247279e-01 7.0840142546762541e-01 1.2237655709094954e-01  6.2386476375738720e-01 7.0805646831814673e-01 1.2223157448788463e-01  6.2256635940167770e-01 7.0580761706936079e-01 1.2118856796517763e-01  6.2192356411656691e-01 7.0469879322014883e-01 1.2065888862594230e-01  6.2142392608524810e-01 7.0383981643090787e-01 1.2023982733246102e-01  6.2110002328758485e-01 7.0328392893262992e-01 1.1996504996815369e-01  6.2099304934536126e-01 7.0310020426105158e-01 1.1987407749833623e-01  6.2107469543228178e-01 7.0323949739698488e-01 1.1994449864384074e-01  6.2130610917703799e-01 7.0363368953645755e-01 1.2014422036382312e-01  6.2166929377402969e-01 7.0424620126988047e-01 1.2046261389735120e-01  6.2157716291112597e-01 7.0397448674663088e-01 1.2050639305754494e-01  6.2092149860490042e-01 7.0278539182858113e-01 1.2001862012243122e-01  6.2030491568153501e-01 7.0166663507182825e-01 1.1955462542596883e-01  6.1977771661073788e-01 7.0070538254235426e-01 1.1915865066625281e-01  6.1937829940214684e-01 6.9997274816320321e-01 1.1886084948704076e-01  6.1904348823627842e-01 6.9934258492203583e-01 1.1862663574415393e-01  6.1886010583332640e-01 6.9897874710724128e-01 1.1851754644406894e-01  6.1864002914