<?xml version="1.0"?>
<VTKFile type="UnstructuredGrid"  version="0.1"  >
<UnstructuredGrid>
<Piece  NumberOfPoints="7288" NumberOfCells="14083">
<Points>
<DataArray  type="Float64"  NumberOfComponents="3"  format="ascii">239.8 188 0  250.2 180 0  258.2 172.4 0  257 169.4 0  259.9 157.4 0  258.7 150.3 0  261 143.5 0  251.7 144.4 0  250 138.7 0  247 138.1 0  245.2 130.8 0  247.3 126.4 0  242.7 118.6 0  231.2 107.7 0  226 102.4 0  226.5 93.90000000000001 0  224.5 91.19999999999999 0  224.5 84.09999999999999 0  234.5 73.80000000000001 0  228.4 68.90000000000001 0  230 70 0  233.4 68 0  222.7 61.5 0  220.6 45.5 0  223.4 49.40000000000001 0  224 47 0  221.8 43.09999999999999 0  221 38.40000000000001 0  219.5 38.5 0  219.4 41.69999999999999 0  217.1 36.90000000000001 0  209.7 36 0  209.5 31.69999999999999 0  205.1 29.90000000000001 0  201.5 30.40000000000001 0  199.2 38.69999999999999 0  201.8 41.40000000000001 0  194.8 53.80000000000001 0  196.1 57.69999999999999 0  193 59 0  191.4 66.09999999999999 0  193.5 66.5 0  194.1 64.40000000000001 0  195.6 64.69999999999999 0  195.4 72.40000000000001 0  199.5 77.30000000000001 0  197.7 86.90000000000001 0  200.6 87.5 0  201.5 91 0  198 94.80000000000001 0  198.6 100 0  197.3 105.4 0  198 109.5 0  197 112.7 0  198.3 116.1 0  201.3 122 0  207.2 121 0  208.1 126.7 0  205.6 127.9 0  209.1 134.9 0  210.9 144.4 0  210.1 147.9 0  213 148.4 0  215.4 149.3 0  215.1 152.8 0  219.9 159.7 0  220.3 163.2 0  218.7 164.9 0  219.9 166.7 0  221.9 169.7 0  220 170.3 0  224.9 174.7 0  229.8 177.4 0  229.7 181 0  228 172.9 0  239 178 0  240.4 180 0  239 181.5 0  241.2 185.9 0  242.95 187.99 0  240.5875 187.9975 0  241.375 187.995 0  242.1625 187.9925 0  243.6090909090879 187.2636363636397 0  244.2681818181765 186.5372727272785 0  244.9272727272692 185.810909090913 0  245.5863636363531 185.0845454545571 0  246.245454545445 184.3581818181923 0  246.9045454545351 183.6318181818295 0  247.5636363636303 182.9054545454612 0  248.2227272727197 182.1790909090992 0  248.8818181818179 181.4527272727275 0  249.5409090909066 180.7263636363664 0  250.8666666666961 179.3666666666387 0  251.5333333334033 178.7333333332668 0  252.2000000000994 178.0999999999055 0  252.8666666668011 177.466666666539 0  253.5333333335083 176.8333333331671 0  254.2000000002044 176.1999999998058 0  254.8666666669005 175.5666666664445 0  255.5333333336077 174.9333333330727 0  256.2000000002685 174.2999999997449 0  256.8666666668457 173.6666666664966 0  257.5333333334283 173.033333333243 0  257.9000000000077 171.6500000000191 0  257.6000000000015 170.9000000000038 0  257.2999999999954 170.1499999999885 0  257.2230769230778 168.4769230769195 0  257.4461538461543 167.5538461538442 0  257.6692307692309 166.6307692307688 0  257.8923076923074 165.7076923076935 0  258.115384615384 164.7846153846181 0  258.3384615384605 163.8615384615427 0  258.5615384615395 162.9384615384572 0  258.784615384616 162.0153846153819 0  259.0076923076926 161.0923076923065 0  259.2307692307691 160.1692307692311 0  259.4538461538457 159.2461538461558 0  259.6769230769222 158.3230769230804 0  259.750000000001 156.512500000006 0  259.6000000000014 155.6250000000082 0  259.4500000000029 154.7375000000176 0  259.3000000000018 153.8500000000108 0  259.1500000000007 152.962500000004 0  259.0000000000004 152.0750000000026 0  258.849999999999 151.187499999994 0  258.9875000000052 149.4499999999846 0  259.275000000002 148.5999999999941 0  259.5624999999954 147.7500000000135 0  259.849999999995 146.900000000015 0  260.1374999999945 146.0500000000164 0  260.4249999999913 145.2000000000259 0  260.7124999999948 144.3500000000154 0  260.0700000000398 143.5899999999961 0  259.1400000000573 143.6799999999944 0  258.2100000000351 143.7699999999966 0  257.2800000000262 143.8599999999975 0  256.350000000011 143.9499999999989 0  255.4199999999881 144.0400000000011 0  254.4899999999726 144.1300000000026 0  253.5599999999944 144.2200000000005 0  252.6300000000009 144.3099999999999 0  251.4166666666658 143.4499999999971 0  251.1333333333388 142.5000000000182 0  250.8500000000015 141.5500000000051 0  250.5666666666612 140.5999999999818 0  250.2833333333342 139.6500000000029 0  249.2500000000005 138.5500000000001 0  248.5000000000011 138.4000000000002 0  247.7499999999995 138.2499999999999 0  246.7750000000005 137.1875000000023 0  246.5500000000021 136.2750000000085 0  246.3250000000036 135.3625000000147 0  246.1000000000042 134.450000000017 0  245.8750000000022 133.5375000000088 0  245.650000000003 132.6250000000124 0  245.4250000000046 131.7125000000187 0  245.619999999996 129.9200000000084 0  246.0399999999992 129.0400000000017 0  246.4599999999987 128.1600000000028 0  246.8800000000001 127.2799999999997 0  246.8399999999988 125.6199999999979 0  246.3799999999984 124.8399999999973 0  245.9199999999991 124.0599999999985 0  245.4600000000036 123.2800000000062 0  245.0000000000049 122.5000000000082 0  244.5400000000036 121.7200000000062 0  244.0800000000033 120.9400000000056 0  243.6200000000016 120.1600000000027 0  243.1600000000012 119.3800000000021 0  241.9812499999996 117.9187499999997 0  241.2625000000007 117.2375000000007 0  240.5437500000017 116.5562500000017 0  239.8250000000041 115.875000000004 0  239.1062500000066 115.1937500000063 0  238.3875000000076 114.5125000000072 0  237.6687500000087 113.8312500000082 0  236.9500000000083 113.1500000000079 0  236.231250000008 112.4687500000076 0  235.512500000009 111.7875000000085 0  234.7937500000045 111.1062500000043 0  234.0750000000042 110.4250000000039 0  233.3562500000066 109.7437500000062 0  232.6375000000021 109.062500000002 0  231.9187500000031 108.381250000003 0  230.5500000000004 107.0375000000004 0  229.9000000000021 106.3750000000021 0  229.2500000000038 105.7125000000039 0  228.6000000000041 105.0500000000042 0  227.9500000000018 104.3875000000018 0  227.2999999999952 103.7249999999951 0  226.6500000000024 103.0625000000024 0  226.0555555555555 101.4555555555556 0  226.1111111111111 100.5111111111111 0  226.1666666666667 99.56666666666668 0  226.2222222222222 98.62222222222223 0  226.2777777777778 97.67777777777778 0  226.3333333333333 96.73333333333335 0  226.3888888888889 95.78888888888889 0  226.4444444444445 94.84444444444446 0  226 93.22499999999999 0  225.5000000000026 92.55000000000358 0  225.0000000000026 91.87500000000358 0  224.5 90.31250000000068 0  224.5 89.4250000000097 0  224.5 88.53750000001317 0  224.5 87.65000000001388 0  224.5 86.76250000001457 0  224.5 85.87500000001248 0  224.5 84.9874999999993 0  225.1666666666659 83.41333333333409 0  225.8333333333319 82.72666666666818 0  226.4999999999978 82.04000000000228 0  227.1666666666649 81.35333333333514 0  227.8333333333301 80.66666666667 0  228.4999999999942 79.980000000006 0  229.1666666666601 79.2933333333401 0  229.8333333333316 78.60666666666847 0  230.4999999999975 77.92000000000257 0  231.1666666666644 77.23333333333572 0  231.8333333333295 76.54666666667057 0  232.4999999999972 75.86000000000287 0  233.1666666666681 75.17333333333181 0  233.8333333333368 74.48666666666306 0  233.7499999999995 73.16666666666629 0  233.0000000000018 72.53333333333488 0  232.2500000000014 71.90000000000116 0  231.5000000000009 71.26666666666743 0  230.7500000000005 70.63333333333372 0  229.233333333333 68.75000000000006 0  230.0666666666665 68.60000000000004 0  230.8999999999995 68.45000000000009 0  231.7333333333325 68.30000000000015 0  232.566666666667 68.14999999999995 0  232.5499999999897 68.50000000000607 0  231.7 69 0  230.8500000000103 69.49999999999393 0  227.8300000000008 68.16000000000106 0  227.2600000000064 67.42000000000837 0  226.6900000000077 66.68000000001001 0  226.1200000000024 65.94000000000314 0  225.5500000000108 65.20000000001409 0  224.9800000000098 64.46000000001268 0  224.4100000000007 63.72000000000098 0  223.8399999999971 62.97999999999621 0  223.2699999999993 62.23999999999915 0  222.753846153846 60.56923076923239 0  222.8076923076921 59.63846153846478 0  222.8615384615381 58.70769230769827 0  222.9153846153842 57.77692307693071 0  222.9692307692302 56.84615384616315 0  223.0230769230761 55.91538461539836 0  223.0769230769224 54.98461538462665 0  223.1307692307688 54.05384615385345 0  223.184615384615 53.12307692308312 0  223.2384615384611 52.19230769231556 0  223.2923076923071 51.26153846154906 0  223.3461538461533 50.33076923077847 0  222.8400000000024 48.62000000000327 0  222.2800000000047 47.84000000000661 0  221.7200000000005 47.06000000000071 0  221.1600000000003 46.28000000000039 0  221.4500000000116 45.87500000000512 0  222.3 46.25 0  223.1499999999884 46.62499999999488 0  223.5600000000055 46.22000000000981 0  223.1199999999987 45.43999999999767 0  222.6800000000061 44.66000000001075 0  222.2399999999969 43.8799999999944 0  221.6400000000004 42.16000000000253 0  221.4800000000009 41.22000000000548 0  221.3200000000014 40.28000000000801 0  221.1600000000009 39.34000000000556 0  220.25 38.45 0  219.4749999999999 39.30000000000165 0  219.45 40.09999999999999 0  219.425 40.90000000000112 0  219.0166666666641 40.89999999999463 0  218.6333333333375 40.10000000000875 0  218.2500000000016 39.30000000000339 0  217.8666666666635 38.49999999999351 0  217.483333333337 37.70000000000762 0  216.1750000000165 36.78750000000201 0  215.2500000000275 36.67500000000335 0  214.3250000000385 36.56250000000469 0  213.4000000000277 36.45000000000337 0  212.4750000000059 36.33750000000072 0  211.5499999999838 36.22499999999803 0  210.6249999999835 36.11249999999799 0  209.6600000000001 35.14000000000318 0  209.6200000000001 34.28000000000268 0  209.5800000000001 33.42000000000284 0  209.5399999999998 32.55999999999681 0  208.6200000000117 31.34000000000476 0  207.7400000000138 30.98000000000564 0  206.8600000000162 30.62000000000662 0  205.9800000000174 30.26000000000711 0  204.2000000000054 30.02499999999925 0  203.2999999999946 30.15000000000076 0  202.3999999999945 30.27500000000076 0  201.2444444444438 31.32222222222468 0  200.9888888888895 32.24444444
[...]
<PointData  Vectors="f_12"> 
<DataArray  type="Float64"  Name="f_12"  NumberOfComponents="3" format="ascii">5.1652053330309966e-01 7.9229019808152376e-02 2.8385638925747803e-01  5.1793599138921476e-01 7.8935265213676539e-02 2.9015165482450683e-01  5.2018142342349649e-01 7.8529469722255621e-02 3.0013284081573943e-01  5.2163341719591927e-01 7.8339098914538219e-02 3.0655542052342105e-01  5.3376774142272498e-01 7.7390483449194983e-02 3.6040140834955087e-01  5.3701724836296172e-01 7.7291673921514065e-02 3.7522011749053341e-01  5.4089153587755023e-01 7.7406123659732762e-02 3.9240871460580556e-01  5.1322076423824614e-01 1.1701117682884180e-01 2.4778974235800147e-01  5.1537635396781623e-01 2.3820895817978180e-01 1.7667144686305697e-01  5.4589708112374780e-01 3.2670446131541092e-01 2.2990023615143440e-01  6.3760494046065919e-01 3.3999184870182519e-01 5.9491332701562116e-01  6.2588747773190068e-01 2.3749332686194244e-01 6.5383487196761436e-01  5.5163838840667412e-01 1.8753968894628897e-01 3.7975635193577689e-01  5.7788210958053077e-01 3.6265132352135993e-01 3.3645915713514812e-01  6.6740208554595049e-01 4.5501962346692576e-01 5.6394710204720477e-01  6.7653744414598582e-01 6.4042637348452258e-01 3.5695150302159662e-01  6.3889609897283428e-01 6.0515703390287989e-01 2.8852705119758154e-01  5.2924668855590185e-01 2.8794622624082677e-01 1.9343523439977314e-01  5.3457196693787556e-01 7.9232127937211919e-02 3.6693855019052746e-01  5.1366893270843872e-01 1.0940968296831659e-01 2.5654362939528647e-01  5.1882285522004778e-01 9.3147052478457559e-02 2.8868732974647671e-01  5.1956825627886416e-01 8.5469106514422397e-02 2.9725236817878381e-01  5.6233084061120020e-01 4.3559575045412374e-01 1.9718348691563972e-01  7.1442225002539006e-01 6.6487497980345067e-01 4.1359400224352566e-01  6.8575489456477023e-01 7.1353562190190456e-01 2.8015258006370469e-01  7.2273462099031527e-01 6.8617578144768665e-01 4.0009105513708138e-01  7.2087111244704261e-01 6.5059248812224102e-01 4.4775928013973071e-01  7.2754134072150811e-01 6.5885268844784850e-01 4.4916428731330882e-01  7.2746344867814272e-01 6.5837953360856138e-01 4.4968652156178834e-01  7.1511000874401898e-01 5.9260068863455895e-01 5.1473289276383061e-01  6.6786859210527572e-01 3.5751432986921222e-01 6.7880318365513981e-01  5.7949107647379483e-01 1.5917986450908636e-01 5.2269368104625613e-01  5.5968256096605029e-01 1.0784437802261583e-01 4.7000051709008173e-01  5.6176538729701997e-01 9.9848217792263924e-02 4.8322027853042532e-01  5.6229529628645614e-01 9.8600245265968472e-02 4.8616234318128726e-01  5.5631806877225753e-01 1.2279310399330251e-01 4.4691579038893531e-01  5.8641483783418824e-01 1.9015335832880761e-01 5.2791352355337473e-01  6.3947403554136972e-01 5.9054097526116422e-01 3.1270904542775979e-01  5.8324177879062267e-01 4.9582234095270894e-01 2.1759158245667923e-01  5.4719544860694191e-01 4.0958001509675268e-01 1.6579445884194191e-01  4.9724017352631156e-01 1.3128298278384962e-01 1.7567475848687658e-01  4.9955428396715690e-01 1.4228584835125366e-01 1.7795694067764586e-01  5.2474833426608369e-01 3.0311843210068190e-01 1.6548083379117118e-01  5.1690381322277490e-01 2.5153890894772679e-01 1.7224050820678780e-01  5.0145079508299528e-01 1.0362481355177149e-01 2.0891529803116538e-01  5.0121994234657730e-01 9.6989913105908057e-02 2.1141779153475479e-01  4.9445738314573312e-01 1.8461413899016010e-01 1.3115909727489736e-01  5.0303334609619543e-01 2.3355661112248136e-01 1.3099693909454996e-01  5.3092597346361226e-01 3.9220865107290981e-01 1.1812685583790447e-01  5.4718488208147253e-01 4.8587261203295612e-01 9.9546467282148277e-02  5.6829174102629421e-01 5.5738693068728451e-01 1.0716322421301885e-01  5.8732776906393103e-01 6.1427462292723056e-01 1.1447089673322550e-01  6.0024463130261896e-01 6.4467195931554999e-01 1.2371058348080048e-01  6.0540143325539586e-01 6.5695480600201039e-01 1.2657741387526014e-01  6.1539735847655619e-01 6.7206293210845702e-01 1.4010929818083601e-01  6.3713642256165193e-01 6.8985416403842559e-01 1.8361243873839023e-01  6.6823288358189159e-01 5.9794544557052509e-01 3.9204134581434869e-01  6.3829510465493045e-01 3.6983416342380482e-01 5.6837054704853174e-01  6.2949504858235616e-01 3.3856905023626116e-01 5.7032196566605264e-01  6.3973491270678207e-01 3.6725880235558361e-01 5.7660532941730180e-01  6.2272116051732906e-01 5.5482192055584989e-01 3.0061697140742549e-01  6.0613271125527801e-01 5.5525540718674071e-01 2.4294296260979881e-01  5.9377693868771986e-01 5.2005006484648764e-01 2.3498968210073012e-01  5.5472287407325938e-01 3.9893443112503857e-01 2.0073450258592407e-01  5.1336204460892798e-01 2.4362510001243137e-01 1.6421749475300546e-01  5.1469363885974884e-01 9.6493099450624897e-02 2.6630032513098240e-01  5.3313010190496801e-01 7.9387155502575621e-02 3.5653123946231080e-01  5.3829995799270314e-01 7.7651561224461568e-02 3.8051085679356422e-01  5.3995412195976533e-01 7.7522626827544225e-02 3.8785807867929512e-01  5.4089320556269604e-01 7.7624754135954682e-02 3.9179651107541885e-01  5.4164987107367102e-01 7.7640156151061318e-02 3.9515601258510774e-01  5.3775818289442379e-01 7.7673316332895759e-02 3.7777790022564661e-01  5.2704073802276530e-01 7.7691828930322684e-02 3.3056674933837726e-01  5.2604993076497630e-01 7.7698807441095863e-02 3.2623374338555883e-01  5.3414297982935821e-01 7.7657110947599847e-02 3.6179071277755065e-01  5.2153712295246346e-01 7.8365307107604684e-02 3.0610760097492185e-01  5.1852749741818094e-01 7.8853741738779279e-02 2.9275148565226500e-01  5.1762857750750124e-01 7.9008265319145038e-02 2.8877215742028506e-01  5.1669294639787866e-01 7.9192316534101914e-02 2.8462257574016359e-01  5.1658203527919300e-01 7.9215678961239461e-02 2.8412988632707736e-01  5.1652880382473276e-01 7.9227234463126212e-02 2.8389315676427873e-01  5.1654620358112535e-01 7.9223465522460304e-02 2.8397052363035152e-01  5.1656537410336212e-01 7.9219297595845048e-02 2.8405578379050406e-01  5.1662540890648878e-01 7.9206339597367045e-02 2.8432274274711639e-01  5.1670251469303063e-01 7.9189810044645481e-02 2.8466557901206013e-01  5.1680068160249648e-01 7.9168877197450860e-02 2.8510207152473083e-01  5.1691380011980703e-01 7.9144909656088225e-02 2.8560507005032976e-01  5.1703865223443468e-01 7.9118629456813486e-02 2.8616028424186551e-01  5.1717063078959802e-01 7.9091022485020354e-02 2.8674726570274173e-01  5.1731111497384374e-01 7.9061877736645900e-02 2.8737210890145570e-01  5.1745721305245351e-01 7.9031816386030351e-02 2.8802196083736598e-01  5.1760709236306002e-01 7.9001245239369980e-02 2.8868867155323058e-01  5.1776599646315791e-01 7.8969191248754442e-02 2.8939550115293800e-01  5.1809962537240384e-01 7.8902910743516921e-02 2.9087954211765227e-01  5.1826535923931794e-01 7.8870473141116171e-02 2.9161677650191076e-01  5.1844089287263340e-01 7.8836545821892992e-02 2.9239756208945727e-01  5.1862739972275296e-01 7.8800968777008609e-02 2.9322712010816904e-01  5.1882441239153398e-01 7.8763926954462216e-02 2.9410337039099460e-01  5.1903078556260818e-01 7.8725724672076364e-02 2.9502120826911959e-01  5.1924732375347882e-01 7.8686424925829904e-02 2.9598410619619264e-01  5.1946977300573949e-01 7.8646965628574567e-02 2.9697305157864462e-01  5.1969109601226149e-01 7.8608779933904749e-02 2.9795660800559948e-01  5.1990114342278659e-01 7.8573728702145601e-02 2.9888949933538556e-01  5.2007963617874131e-01 7.8545096290286720e-02 2.9968159533895639e-01  5.2030039088396374e-01 7.8513088833900263e-02 3.0065892559178620e-01  5.2056725628573497e-01 7.8477190706086886e-02 3.0183886925249348e-01  5.2098068111935769e-01 7.8422793160719526e-02 3.0366726105430653e-01  5.2251819910379727e-01 7.8230077042302448e-02 3.1047237227385516e-01  5.2335517912168017e-01 7.8132773764711658e-02 3.1417938896467335e-01  5.2421954123822989e-01 7.8039378209877538e-02 3.1800848559781991e-01  5.2512541849837713e-01 7.7949508849584376e-02 3.2202173219575664e-01  5.2607432165614176e-01 7.7863945102678606e-02 3.2622575973093776e-01  5.2706232838906475e-01 7.7783515558664945e-02 3.3060356219704728e-01  5.2808147507072578e-01 7.7708896680289699e-02 3.3512057863208594e-01  5.2912000145192317e-01 7.7640354152465355e-02 3.3972568622332944e-01  5.3016180153022097e-01 7.7578248986985274e-02 3.4434852775625008e-01  5.3118661098435438e-01 7.7521897957765706e-02 3.4890082353839930e-01  5.3216561506667848e-01 7.7471465821870714e-02 3.5325534741116060e-01  5.3305855598547791e-01 7.7426684379521493e-02 3.5723413812901039e-01  5.3437113952034876e-01 7.7353866811660801e-02 3.6310967243983994e-01  5.3501188476221995e-01 7.7310035699890867e-02 3.6599946685475587e-01  5.3560918602262730e-01 7.7264139848777766e-02 3.6871019642746167e-01  5.3610382834148607e-01 7.7221269109183505e-02 3.7097605558706620e-01  5.3647530021472745e-01 7.7189846428647402e-02 3.7269852878169790e-01  5.3672681113052711e-01 7.7181665092411603e-02 3.7388000073479633e-01  5.3687889736983452e-01 7.7210289000848781e-02 3.7459840852137116e-01  5.3744972102283073e-01 7.7354654703954279e-02 3.7713994014112451e-01  5.3790368117847154e-01 7.7421442299107690e-02 3.7913237784383319e-01  5.3848587494487254e-01 7.7457774165717100e-02 3.8170070368903197e-01  5.3911007462234695e-01 7.7477223697282396e-02 3.8445918635680154e-01  5.3974685573539871e-01 7.7472100741604974e-02 3.8728664332504392e-01  5.4031767327456892e-01 7.7450151653726360e-02 3.8983257430648094e-01  5.4073524487624913e-01 7.7421595605767168e-02 3.9170436227262501e-01  5.4065691378229885e-01 7.7447020890791016e-02 3.9133775247545205e-01  5.3984886641519336e-01 7.7621347310109293e-02 3.8762595558185020e-01  5.3841540322049397e-01 7.8022851743496241e-02 3.8098208215108942e-01  5.3636463752635566e-01 7.8783620559175621e-02 3.7136709073570418e-01  5.3373421535226961e-01 8.0114821446628848e-02 3.5883842251166370e-01  5.3061157708054052e-01 8.2280961158262098e-02 3.4366470955768219e-01  5.2708429559559256e-01 8.5661046017958695e-02 3.2607427185629467e-01  5.2319961719158703e-01 9.0882980825674559e-02 3.0599437287636361e-01  5.1885857797786261e-01 9.9438069367581858e-02 2.8221303083178106e-01  5.0913678866491952e-01 1.4267933139878647e-01 2.1504742623504086e-01  5.0793089775305311e-01 1.6467595732094129e-01 1.9623531665507393e-01  5.0848842743228762e-01 1.8670697605190331e-01 1.8421786446604616e-01  5.1039194491659079e-01 2.0787430414693148e-01 1.7776011648396189e-01  5.1303181261706443e-01 2.2639440513293524e-01 1.7563940407034054e-01  5.1757935877929340e-01 2.4614237305447748e-01 1.7963785913546923e-01  5.2275465138040100e-01 2.6315463314285270e-01 1.8755099548021861e-01  5.3126274389619665e-01 2.8827603533136759e-01 2.0214342463195958e-01  5.6694031102913012e-01 3.7211994971581441e-01 2.7588259091958678e-01  5.8342257410066978e-01 3.9804379371883630e-01 3.1855883929544271e-01  5.9791011584369136e-01 4.1203652736546648e-01 3.6294132748218100e-01  6.1053850112985852e-01 4.1569805865384463e-01 4.0917466621529863e-01  6.2104246741046809e-01 4.0983556307538577e-01 4.5634206111360281e-01  6.2917404909557439e-01 3.9543879750778044e-01 5.0313559736848612e-01  6.3473813232648257e-01 3.7303845282203529e-01 5.4857465620991019e-01  6.3724422367966560e-01 3.0562712007028281e-01 6.2969592259186269e-01  6.3500638576422608e-01 2.8019086120704118e-01 6.4723950770383132e-01  6.3182378219367852e-01 2.6025676806101911e-01 6.5491826819409604e-01  6.2842551833776605e-01 2.4556506077775564e-01 6.5606416631446030e-01  6.2265301323488165e-01 2.3118050103134685e-01 6.4682917593728118e-01  6.1670605322264282e-01 2.2178389640593257e-01 6.3142263687778277e-01  6.0900915447567627e-01 2.1169172012356596e-01 6.0885028927239360e-01  6.0016598030199786e-01 2.0217435565269615e-01 5.8015046313930663e-01  5.9081582152573409e-01 1.9428882326464331e-01 5.4701879554621369e-01  5.8143730674087069e-01 1.8847458460629904e-01 5.1121913507566696e-01  5.7247170669689518e-01 1.8497038574825711e-01 4.7469698865435578e-01  5.6428029593405882e-01 1.8384163334458598e-01 4.3926097590795710e-01  5.5718390221593528e-01 1.8486228425211973e-01 4.0674810033559999e-01  5.4657089316368568e-01 1.9278727224028550e-01 3.5283838549512631e-01  5.4196316429810631e-01 2.0071924934128418e-01 3.2588367677023056e-01  5.3824818926096019e-01 2.1078691452439588e-01 3.0128026920217676e-01  5.3552175650835709e-01 2.2260711123746207e-01 2.7972333069742511e-01  5.3379598040752296e-01 2.3577712560897354e-01 2.6150482243631379e-01  5.3309295303206938e-01 2.4996592327555461e-01 2.4688705726740701e-01  5.3338944437841351e-01 2.6479703636370994e-01 2.3596339068854008e-01  5.3467265696858146e-01 2.7991143600501772e-01 2.2887231644155498e-01  5.3694726240956236e-01 2.9496256843786939e-01 2.2583934646603060e-01  5.4017490882251562e-01 3.0949176096027764e-01 2.2703401967244408e-01  5.4433001841298712e-01 3.2305232679386098e-01 2.3270965614187919e-01  5.4939273330467919e-01 3.3521058218027056e-01 2.4317434111266137e-01  5.5527843250590869e-01 3.4543727336620605e-01 2.5857399781712054e-01  5.6204493450667370e-01 3.5342674867958124e-01 2.7947034476448512e-01  5.6955575053532059e-01 3.5905514735210708e-01 3.0544165638327825e-01  5.8632909423454171e-01 3.6466308552443349e-01 3.6914068069481581e-01  5.9531847955471273e-01 3.6631380860074036e-01 4.0387211855097394e-01  6.0495471763093545e-01 3.6880678326748856e-01 4.3962794562765001e-01  6.1535284871679452e-01 3.7368733661755288e-01 4.7480462972106635e-01  6.2656124218912801e-01 3.8241426691131220e-01 5.0753265506088130e-01  6.3863812568526146e-01 3.9670579117417093e-01 5.3541490534489189e-01  6.5180574878420516e-01 4.1900423158152039e-01 5.5541259618084471e-01  6.8037285591674124e-01 4.9630655199732565e-01 5.5358539844765509e-01  6.8780294348899951e-01 5.2965983719746823e-01 5.3321620157588090e-01  6.9194559472072770e-01 5.5901945289790478e-01 5.0672033525091453e-01  6.9342303537997274e-01 5.8438947964844334e-01 4.7715415713417403e-01  6.9263906209679316e-01 6.0531618669366782e-01 4.4703886877500937e-01  6.8996110590380977e-01 6.2133191063804671e-01 4.1842038624407590e-01  6.8585204218488860e-01 6.3230457172138610e-01 3.9282446237938617e-01  6.8095158184636362e-01 6.3847506487797034e-01 3.7151476665514482e-01  6.7189469992560347e-01 6.3913233856482587e-01 3.4564158897482017e-01  6.6417688530261054e-01 6.3433581857048338e-01 3.2961539134017437e-01  6.5373557874116206e-01 6.2432790418445616e-01 3.1111567597268563e-01  6.2188816168141559e-01 5.7698953525517205e-01 2.6645605221860674e-01  6.0722427861508410e-01 5.4721288033897875e-01 2.5006148554227531e-01  5.9337230098195948e-01 5.1396488533856699e-01 2.3650947531568378e-01  5.8000571264568901e-01 4.7708158345208096e-01 2.2490958474737177e-01  5.6712596579295460e-01 4.3675803258880580e-01 2.1508158940948349e-01  5.5465547912450097e-01 3.9317408435555545e-01 2.0653278653868914e-01  5.4253197688271415e-01 3.4597762189078007e-01 1.9940272701825182e-01  5.1864696378718833e-01 2.3408368101463989e-01 1.9192483253820838e-01  5.1276787383164713e-01 1.9780957188482579e-01 1.9428500064835294e-01  5.0946686031009536e-01 1.7010278824800110e-01 1.9987187451805635e-01  5.0812010878082392e-01 1.4840309484842443e-01 2.0865762055380166e-01  5.0834099130887000e-01 1.3127397758210518e-01 2.2049677600682835e-01  5.0981924961285852e-01 1.1774382051267487e-01 2.3508113404800601e-01  5.1228924631808170e-01 1.0713353427154723e-01 2.5198888715167322e-01  5.1548754380129769e-01 9.8911018082987454e-02 2.7062537327381991e-01  5.1912695227552685e-01 9.2617777089021067e-02 2.9015743264153626e-01  5.2292456170587420e-01 8.7903209639311919e-02 3.0962122201458570e-01  5.2657807869154560e-01 8.4457625814428047e-02 3.2786756075752205e-01  5.2980171504162998e-01 8.2041904577167188e-02 3.4372490740703499e-01  5.3232742105306230e-01 8.0457769280510807e-02 3.5604429235297258e-01  5.3393508897693265e-01 7.9564870099039064e-02 3.6385134414267961e-01  5.3392784012702266e-01 7.9576441176046162e-02 3.6381295794060675e-01  5.3225371222543172e-01 8.0539661591383815e-02 3.5567100996402018e-01  5.2967189191513409e-01 8.2236409005118596e-02 3.4304808617621652e-01  5.2641420490108959e-01 8.4804066480170040e-02 3.2697724659989946e-01  5.2273740766353749e-01 8.8405130473922219e-02 3.0858369539613101e-01  5.1664499443213130e-01 9.8108519872435060e-02 2.7627606448919068e-01  5.1810420451213612e-01 9.2617146321854291e-02 2.8603765262184283e-01  5.1877375298327577e-01 8.9459628717027506e-02 2.9103176744017212e-01  5.1918598513569081e-01 8.7362601192392447e-02 2.9426167567926875e-01  5.1944159875791096e-01 8.6080297440896930e-02 2.9627017814892981e-01  5.1941636166904381e-01 8.6203289920490520e-02 2.9607372843955176e-01  5.1908644287633399e-01 8.7904235450548970e-02 2.9344978775683905e-01  5.1866740070149719e-01 9.0512823297625708e-02 2.8983270028622948e-01  5.1061366084064286e-01 1.2764057002011445e-01 2.3223510613213336e-01  5.0934988186367602e-01 1.4593978319519887e-01 2.1527809649232982e-01  5.0954254948275945e-01 1.6671103683950494e-01 2.0247119898737129e-01  5.1124440346635835e-01 1.9073562925185156e-01 1.9320758144266306e-01  5.1457547362942702e-01 2.1856039242070666e-01 1.8724801739955407e-01  5.1962184871469574e-01 2.5046380925253914e-01 1.8434930070291278e-01  5.2649476316567512e-01 2.8677738827168892e-01 1.8421817688660663e-01  5.3535976329665469e-01 3.2797840117442340e-01 1.8647789908194728e-01  5.4662620562323017e-01 3.7532357104208303e-01 1.9070781194605493e-01  5.7921478937174053e-01 4.9489266016591393e-01 2.0412481169906765e-01  5.9280749889499473e-01 5.3878697572034451e-01 2.0914218121275327e-01  6.0512474711767594e-01 5.7549213029123647e-01 2.1318364589969202e-01  6.1648149292467569e-01 6.0651611627986046e-01 2.1675678463617870e-01  6.2705858722404328e-01 6.3278157206726715e-01 2.2034381759679122e-01  6.3691508127349983e-01 6.5469665513576358e-01 2.2439459547831436e-01  6.4610707350509933e-01 6.7264881934646148e-01 2.2928737296909674e-01  6.5466638397058619e-01 6.8696384700264590e-01 2.3530039433339944e-01  6.6260325586884483e-01 6.9793439343334185e-01 2.4260928505659762e-01  6.6986747385524159e-01 7.0580282351429235e-01 2.5120854816950577e-01  6.7638080292164660e-01 7.1080665081173022e-01 2.6098137508614000e-01  6.8195001531122212e-01 7.1319773493945160e-01 2.7144964422540208e-01  6.8963823006712122e-01 7.1110752477748906e-01 2.9263782619121603e-01  6.9478970540245089e-01 7.0530991851163127e-01 3.1263535083844424e-01  7.0043372574314988e-01 6.9581633267837972e-01 3.3883250125830205e-01  7.0647496572432955e-01 6.8237970116848212e-01 3.7136251246903756e-01  7.1969655744631023e-01 6.7288137633034195e-01 4.1316417413218742e-01  7.2164050234821575e-01 6.7992122822410017e-01 4.0698168270115875e-01  7.2245976032042392e-01 6.8439404308914786e-01 4.0213720536228237e-01  7.2247631170645621e-01 6.8449033669813508e-01 4.0203019850358734e-01  7.2188580942765568e-01 6.8024964375724573e-01 4.0701430606301320e-01  7.2116340222817177e-01 6.7309999550450561e-01 4.1593094873948377e-01  7.2075296207396911e-01 6.6299331493356961e-01 4.2971170684527599e-01  7.2179673038021563e-01 6.4214918280151390e-01 4.6167470403797806e-01  7.2336320562324197e-01 6.4230855856298164e-01 4.6459114699112414e-01  7.2533340808783886e-01 6.4885130471237951e-01 4.5918693204196115e-01  7.2692552624368523e-01 6.5589767899311702e-01 4.5221612368779301e-01  7.2746410717641885e-01 6.5843001369340892e-01 4.4961731370058095e-01  7.2692435812990175e-01 6.5559955657181868e-01 4.5260634426934615e-01  7.2534551724353202e-01 6.4748614039329500e-01 4.6098878307102037e-01  7.2209294118702061e-01 6.3033041940159096e-01 4.7824801644617665e-01  7.0353092724608568e-01 5.2008671573319942e-01 5.8349162101960672e-01  6.9469867944610997e-01 4.7058320039787382e-01 6.2380414365171200e-01  6.8636326178368789e-01 4.3016097992867541e-01 6.5025224481937371e-01  6.7852432296437515e-01 3.9676977539323838e-01 6.6689719933190472e-01  6.7188364394163580e-01 3.7143775767870779e-01 6.7579466332407301e-01  6.6324523485571918e-01 3.4398002217954671e-01 6.7825885655037033e-01  6.5507914369250453e-01 3.2196753286216107e-01 6.7376449477214850e-01  6.4476602822