<?xml version="1.0"?>
<VTKFile type="UnstructuredGrid"  version="0.1"  >
<UnstructuredGrid>
<Piece  NumberOfPoints="7288" NumberOfCells="14083">
<Points>
<DataArray  type="Float64"  NumberOfComponents="3"  format="ascii">239.8 188 0  250.2 180 0  258.2 172.4 0  257 169.4 0  259.9 157.4 0  258.7 150.3 0  261 143.5 0  251.7 144.4 0  250 138.7 0  247 138.1 0  245.2 130.8 0  247.3 126.4 0  242.7 118.6 0  231.2 107.7 0  226 102.4 0  226.5 93.90000000000001 0  224.5 91.19999999999999 0  224.5 84.09999999999999 0  234.5 73.80000000000001 0  228.4 68.90000000000001 0  230 70 0  233.4 68 0  222.7 61.5 0  220.6 45.5 0  223.4 49.40000000000001 0  224 47 0  221.8 43.09999999999999 0  221 38.40000000000001 0  219.5 38.5 0  219.4 41.69999999999999 0  217.1 36.90000000000001 0  209.7 36 0  209.5 31.69999999999999 0  205.1 29.90000000000001 0  201.5 30.40000000000001 0  199.2 38.69999999999999 0  201.8 41.40000000000001 0  194.8 53.80000000000001 0  196.1 57.69999999999999 0  193 59 0  191.4 66.09999999999999 0  193.5 66.5 0  194.1 64.40000000000001 0  195.6 64.69999999999999 0  195.4 72.40000000000001 0  199.5 77.30000000000001 0  197.7 86.90000000000001 0  200.6 87.5 0  201.5 91 0  198 94.80000000000001 0  198.6 100 0  197.3 105.4 0  198 109.5 0  197 112.7 0  198.3 116.1 0  201.3 122 0  207.2 121 0  208.1 126.7 0  205.6 127.9 0  209.1 134.9 0  210.9 144.4 0  210.1 147.9 0  213 148.4 0  215.4 149.3 0  215.1 152.8 0  219.9 159.7 0  220.3 163.2 0  218.7 164.9 0  219.9 166.7 0  221.9 169.7 0  220 170.3 0  224.9 174.7 0  229.8 177.4 0  229.7 181 0  228 172.9 0  239 178 0  240.4 180 0  239 181.5 0  241.2 185.9 0  242.95 187.99 0  240.5875 187.9975 0  241.375 187.995 0  242.1625 187.9925 0  243.6090909090879 187.2636363636397 0  244.2681818181765 186.5372727272785 0  244.9272727272692 185.810909090913 0  245.5863636363531 185.0845454545571 0  246.245454545445 184.3581818181923 0  246.9045454545351 183.6318181818295 0  247.5636363636303 182.9054545454612 0  248.2227272727197 182.1790909090992 0  248.8818181818179 181.4527272727275 0  249.5409090909066 180.7263636363664 0  250.8666666666961 179.3666666666387 0  251.5333333334033 178.7333333332668 0  252.2000000000994 178.0999999999055 0  252.8666666668011 177.466666666539 0  253.5333333335083 176.8333333331671 0  254.2000000002044 176.1999999998058 0  254.8666666669005 175.5666666664445 0  255.5333333336077 174.9333333330727 0  256.2000000002685 174.2999999997449 0  256.8666666668457 173.6666666664966 0  257.5333333334283 173.033333333243 0  257.9000000000077 171.6500000000191 0  257.6000000000015 170.9000000000038 0  257.2999999999954 170.1499999999885 0  257.2230769230778 168.4769230769195 0  257.4461538461543 167.5538461538442 0  257.6692307692309 166.6307692307688 0  257.8923076923074 165.7076923076935 0  258.115384615384 164.7846153846181 0  258.3384615384605 163.8615384615427 0  258.5615384615395 162.9384615384572 0  258.784615384616 162.0153846153819 0  259.0076923076926 161.0923076923065 0  259.2307692307691 160.1692307692311 0  259.4538461538457 159.2461538461558 0  259.6769230769222 158.3230769230804 0  259.750000000001 156.512500000006 0  259.6000000000014 155.6250000000082 0  259.4500000000029 154.7375000000176 0  259.3000000000018 153.8500000000108 0  259.1500000000007 152.962500000004 0  259.0000000000004 152.0750000000026 0  258.849999999999 151.187499999994 0  258.9875000000052 149.4499999999846 0  259.275000000002 148.5999999999941 0  259.5624999999954 147.7500000000135 0  259.849999999995 146.900000000015 0  260.1374999999945 146.0500000000164 0  260.4249999999913 145.2000000000259 0  260.7124999999948 144.3500000000154 0  260.0700000000398 143.5899999999961 0  259.1400000000573 143.6799999999944 0  258.2100000000351 143.7699999999966 0  257.2800000000262 143.8599999999975 0  256.350000000011 143.9499999999989 0  255.4199999999881 144.0400000000011 0  254.4899999999726 144.1300000000026 0  253.5599999999944 144.2200000000005 0  252.6300000000009 144.3099999999999 0  251.4166666666658 143.4499999999971 0  251.1333333333388 142.5000000000182 0  250.8500000000015 141.5500000000051 0  250.5666666666612 140.5999999999818 0  250.2833333333342 139.6500000000029 0  249.2500000000005 138.5500000000001 0  248.5000000000011 138.4000000000002 0  247.7499999999995 138.2499999999999 0  246.7750000000005 137.1875000000023 0  246.5500000000021 136.2750000000085 0  246.3250000000036 135.3625000000147 0  246.1000000000042 134.450000000017 0  245.8750000000022 133.5375000000088 0  245.650000000003 132.6250000000124 0  245.4250000000046 131.7125000000187 0  245.619999999996 129.9200000000084 0  246.0399999999992 129.0400000000017 0  246.4599999999987 128.1600000000028 0  246.8800000000001 127.2799999999997 0  246.8399999999988 125.6199999999979 0  246.3799999999984 124.8399999999973 0  245.9199999999991 124.0599999999985 0  245.4600000000036 123.2800000000062 0  245.0000000000049 122.5000000000082 0  244.5400000000036 121.7200000000062 0  244.0800000000033 120.9400000000056 0  243.6200000000016 120.1600000000027 0  243.1600000000012 119.3800000000021 0  241.9812499999996 117.9187499999997 0  241.2625000000007 117.2375000000007 0  240.5437500000017 116.5562500000017 0  239.8250000000041 115.875000000004 0  239.1062500000066 115.1937500000063 0  238.3875000000076 114.5125000000072 0  237.6687500000087 113.8312500000082 0  236.9500000000083 113.1500000000079 0  236.231250000008 112.4687500000076 0  235.512500000009 111.7875000000085 0  234.7937500000045 111.1062500000043 0  234.0750000000042 110.4250000000039 0  233.3562500000066 109.7437500000062 0  232.6375000000021 109.062500000002 0  231.9187500000031 108.381250000003 0  230.5500000000004 107.0375000000004 0  229.9000000000021 106.3750000000021 0  229.2500000000038 105.7125000000039 0  228.6000000000041 105.0500000000042 0  227.9500000000018 104.3875000000018 0  227.2999999999952 103.7249999999951 0  226.6500000000024 103.0625000000024 0  226.0555555555555 101.4555555555556 0  226.1111111111111 100.5111111111111 0  226.1666666666667 99.56666666666668 0  226.2222222222222 98.62222222222223 0  226.2777777777778 97.67777777777778 0  226.3333333333333 96.73333333333335 0  226.3888888888889 95.78888888888889 0  226.4444444444445 94.84444444444446 0  226 93.22499999999999 0  225.5000000000026 92.55000000000358 0  225.0000000000026 91.87500000000358 0  224.5 90.31250000000068 0  224.5 89.4250000000097 0  224.5 88.53750000001317 0  224.5 87.65000000001388 0  224.5 86.76250000001457 0  224.5 85.87500000001248 0  224.5 84.9874999999993 0  225.1666666666659 83.41333333333409 0  225.8333333333319 82.72666666666818 0  226.4999999999978 82.04000000000228 0  227.1666666666649 81.35333333333514 0  227.8333333333301 80.66666666667 0  228.4999999999942 79.980000000006 0  229.1666666666601 79.2933333333401 0  229.8333333333316 78.60666666666847 0  230.4999999999975 77.92000000000257 0  231.1666666666644 77.23333333333572 0  231.8333333333295 76.54666666667057 0  232.4999999999972 75.86000000000287 0  233.1666666666681 75.17333333333181 0  233.8333333333368 74.48666666666306 0  233.7499999999995 73.16666666666629 0  233.0000000000018 72.53333333333488 0  232.2500000000014 71.90000000000116 0  231.5000000000009 71.26666666666743 0  230.7500000000005 70.63333333333372 0  229.233333333333 68.75000000000006 0  230.0666666666665 68.60000000000004 0  230.8999999999995 68.45000000000009 0  231.7333333333325 68.30000000000015 0  232.566666666667 68.14999999999995 0  232.5499999999897 68.50000000000607 0  231.7 69 0  230.8500000000103 69.49999999999393 0  227.8300000000008 68.16000000000106 0  227.2600000000064 67.42000000000837 0  226.6900000000077 66.68000000001001 0  226.1200000000024 65.94000000000314 0  225.5500000000108 65.20000000001409 0  224.9800000000098 64.46000000001268 0  224.4100000000007 63.72000000000098 0  223.8399999999971 62.97999999999621 0  223.2699999999993 62.23999999999915 0  222.753846153846 60.56923076923239 0  222.8076923076921 59.63846153846478 0  222.8615384615381 58.70769230769827 0  222.9153846153842 57.77692307693071 0  222.9692307692302 56.84615384616315 0  223.0230769230761 55.91538461539836 0  223.0769230769224 54.98461538462665 0  223.1307692307688 54.05384615385345 0  223.184615384615 53.12307692308312 0  223.2384615384611 52.19230769231556 0  223.2923076923071 51.26153846154906 0  223.3461538461533 50.33076923077847 0  222.8400000000024 48.62000000000327 0  222.2800000000047 47.84000000000661 0  221.7200000000005 47.06000000000071 0  221.1600000000003 46.28000000000039 0  221.4500000000116 45.87500000000512 0  222.3 46.25 0  223.1499999999884 46.62499999999488 0  223.5600000000055 46.22000000000981 0  223.1199999999987 45.43999999999767 0  222.6800000000061 44.66000000001075 0  222.2399999999969 43.8799999999944 0  221.6400000000004 42.16000000000253 0  221.4800000000009 41.22000000000548 0  221.3200000000014 40.28000000000801 0  221.1600000000009 39.34000000000556 0  220.25 38.45 0  219.4749999999999 39.30000000000165 0  219.45 40.09999999999999 0  219.425 40.90000000000112 0  219.0166666666641 40.89999999999463 0  218.6333333333375 40.10000000000875 0  218.2500000000016 39.30000000000339 0  217.8666666666635 38.49999999999351 0  217.483333333337 37.70000000000762 0  216.1750000000165 36.78750000000201 0  215.2500000000275 36.67500000000335 0  214.3250000000385 36.56250000000469 0  213.4000000000277 36.45000000000337 0  212.4750000000059 36.33750000000072 0  211.5499999999838 36.22499999999803 0  210.6249999999835 36.11249999999799 0  209.6600000000001 35.14000000000318 0  209.6200000000001 34.28000000000268 0  209.5800000000001 33.42000000000284 0  209.5399999999998 32.55999999999681 0  208.6200000000117 31.34000000000476 0  207.7400000000138 30.98000000000564 0  206.8600000000162 30.62000000000662 0  205.9800000000174 30.26000000000711 0  204.2000000000054 30.02499999999925 0  203.2999999999946 30.15000000000076 0  202.3999999999945 30.27500000000076 0  201.2444444444438 31.32222222222468 0  200.9888888888895 32.24444444
[...]
<PointData  Vectors="f_12"> 
<DataArray  type="Float64"  Name="f_12"  NumberOfComponents="3" format="ascii">5.0224219749713661e-01 3.1405361453694730e-01 7.4200700953216264e-02  5.0134985347371086e-01 3.0968692467538705e-01 7.4091036385684345e-02  5.0089841632216558e-01 3.0805502207017038e-01 7.3675479431380780e-02  5.0200963757282824e-01 3.1387426631485776e-01 7.3591927247745090e-02  5.3361753164582271e-01 4.4019661953723571e-01 8.9625710934650063e-02  5.8930968248076354e-01 5.9368627262314666e-01 1.4139127782706162e-01  6.0081153883614014e-01 6.3178832381811889e-01 1.3991048568228076e-01  6.6023236134752616e-01 5.1167710199899530e-01 4.7393062550477300e-01  6.4274645404601460e-01 2.8834379516522901e-01 6.6745883820655649e-01  6.2407344715667112e-01 2.5125523174221326e-01 6.3384881516964697e-01  6.3130354865973559e-01 2.6152111437476594e-01 6.5210003845935238e-01  6.5111216746047096e-01 2.7129408509759717e-01 7.1389009030272099e-01  5.9482111833967521e-01 1.9492213601322689e-01 5.6406576124670160e-01  5.2270475406315620e-01 3.0528739010603723e-01 1.5812492876532139e-01  4.9953005201627337e-01 2.0520209089355049e-01 1.3805018793019991e-01  5.0322990267185408e-01 1.1934925627706451e-01 2.0916355593160144e-01  5.2091377505623671e-01 1.1759847470175376e-01 2.8730285967761532e-01  6.4620717168649922e-01 2.6019096134545250e-01 6.8718018123978919e-01  7.3012695828620966e-01 7.4941146357686772e-01 3.1881977538190237e-01  7.3631376165258378e-01 6.1671239686371371e-01 5.2278988913301261e-01  7.3832376783289755e-01 6.7946475791201288e-01 4.3742926663189996e-01  7.3872975172260791e-01 7.0472524081618537e-01 4.0110637834069940e-01  5.8492751812108634e-01 1.5016388929309493e-01 5.4414817688789763e-01  5.0601602183880900e-01 2.5026602038199119e-01 1.3224703791856240e-01  4.9886112291193208e-01 1.5203146068192150e-01 1.7015021599580291e-01  5.0089162008805155e-01 2.4896885528796989e-01 1.1407937493568991e-01  5.0770997274375596e-01 2.7664660915473127e-01 1.2012159756184643e-01  5.0526097128307013e-01 2.8184743126387229e-01 1.0758950701634465e-01  5.0535046306239573e-01 2.8214327611385059e-01 1.0770564778365545e-01  5.1772896197832663e-01 3.2097752802225876e-01 1.2468751066839451e-01  5.5716347162968094e-01 4.7924262048697974e-01 1.4106095841184615e-01  5.8633744656242648e-01 5.9327843941105740e-01 1.3277390265172331e-01  5.8908162557967758e-01 6.1851140457868503e-01 1.1581184863110622e-01  5.8850299958692187e-01 6.2098599071811400e-01 1.1137779323309269e-01  5.8898585827042427e-01 6.2249365135089818e-01 1.1136228822296589e-01  5.9553458893967226e-01 6.2252941696871056e-01 1.3248061040606204e-01  5.8719208494455843e-01 5.7748701644190570e-01 1.5181211174929785e-01  5.1187553673665886e-01 2.2470190410713209e-01 1.7499054422448646e-01  5.2150312380014352e-01 1.6315620959602875e-01 2.6099324912248711e-01  5.3141246094151284e-01 1.3464892916378535e-01 3.2566637991514374e-01  6.9109396824017233e-01 3.1416091572350047e-01 7.8768503674678669e-01  6.8148354581341297e-01 3.0010764386115635e-01 7.7057303231079188e-01  5.6974283761606648e-01 1.5441976656817388e-01 4.7827906105141149e-01  6.0152785075886117e-01 1.9016544287790330e-01 5.7745481996329917e-01  7.3151847477588083e-01 4.6458396830277043e-01 7.1334921030903264e-01  7.6315205273521325e-01 6.6623847127812030e-01 4.9542363516681032e-01  7.6360476783973030e-01 5.8644857946671380e-01 6.0973730451153751e-01  7.5125025366157583e-01 5.0427601888501583e-01 6.9644756014659803e-01  7.1610290641441632e-01 3.2450562447845188e-01 8.3041141081465342e-01  7.1536212532053456e-01 2.9100045237642425e-01 8.5973668407531623e-01  6.8406238455438406e-01 2.2241444022840676e-01 8.3959013505444535e-01  6.4534575325210353e-01 1.5993106257743950e-01 7.6871031505267684e-01  6.0202238446136169e-01 1.1849544467726476e-01 6.3498787225962550e-01  5.7686295260437870e-01 1.0164476451547630e-01 5.4244542302379128e-01  5.5021885773540058e-01 9.7936658514040251e-02 4.2700690157236448e-01  5.1737928111340636e-01 1.1434183025474511e-01 2.7260624119223925e-01  5.2315587978551448e-01 2.5174250205386439e-01 1.9886193254149581e-01  5.4826690172905235e-01 4.6146623445348867e-01 1.2497329908238104e-01  5.4985269680817839e-01 4.7872684673964616e-01 1.1557177088868127e-01  5.4909219308373280e-01 4.6939144227624607e-01 1.2110728490063334e-01  5.2195971207287417e-01 3.0760479161609017e-01 1.5324366747588028e-01  5.1726083142457835e-01 2.7602834416848115e-01 1.5916338925226631e-01  5.2184808741105548e-01 2.6767004579801418e-01 1.8458625463482803e-01  5.3752497685656775e-01 2.3539739405465920e-01 2.7775359707019492e-01  5.6334520869693805e-01 2.0567865700175106e-01 4.1715181891703695e-01  6.4977373119436865e-01 4.4654995071133602e-01 5.1817660522086795e-01  6.2406342566347306e-01 5.7921424619487027e-01 2.7439190451797313e-01  6.0492552268813171e-01 5.8851902962390501e-01 1.9961312030344794e-01  5.8969762871114551e-01 5.7088923117858337e-01 1.6603536046362280e-01  5.6128663182662586e-01 5.1701584538257261e-01 1.1997478350439437e-01  5.6679418454779229e-01 5.3313788170513798e-01 1.2476563266892829e-01  5.2588880674324323e-01 4.1282482106515639e-01 8.4625895008804575e-02  5.0188754795721868e-01 3.1224861823166200e-01 7.4237815231506646e-02  4.9962608685940113e-01 3.0174527318227767e-01 7.3558332425333287e-02  5.2050640826204997e-01 3.8902208910449498e-01 8.3632310292364564e-02  5.0114687307748129e-01 3.0922932617116133e-01 7.3746386019841917e-02  5.0145694294152510e-01 3.1038858678258657e-01 7.3996766383081641e-02  5.0168676547425228e-01 3.1137418831392888e-01 7.4110380154367245e-02  5.0213502056687342e-01 3.1351982929525668e-01 7.4194022739087359e-02  5.0219947153560851e-01 3.1383765956806170e-01 7.4200067715291362e-02  5.0223669425087747e-01 3.1402592677869523e-01 7.4200539350555192e-02  5.0222482092383025e-01 3.1396601202349822e-01 7.4200303065789341e-02  5.0221130777943768e-01 3.1389759077625057e-01 7.4200179138282377e-02  5.0216977805337415e-01 3.1368817661445370e-01 7.4199224040149600e-02  5.0211721702536261e-01 3.1342416184875371e-01 7.4197325816157025e-02  5.0205037408354292e-01 3.1308933552047258e-01 7.4194264134890567e-02  5.0197365380154768e-01 3.1270652314104780e-01 7.4189720326791414e-02  5.0188970115893528e-01 3.1228969117836070e-01 7.4183337635557345e-02  5.0180178102557138e-01 3.1185561108163784e-01 7.4174987356825928e-02  5.0171077531373409e-01 3.1140989618559578e-01 7.4163957616089987e-02  5.0161903737388280e-01 3.1096443414026892e-01 7.4150303733961420e-02  5.0152849078238826e-01 3.1052893599056358e-01 7.4134083821636540e-02  5.0143892710282734e-01 3.1010392371111972e-01 7.4114333186433040e-02  5.0126925331044658e-01 3.0931377638805146e-01 7.4067253931678109e-02  5.0119355883873407e-01 3.0896807625176148e-01 7.4041888744755216e-02  5.0112228814413717e-01 3.0864996646109000e-01 7.4013368431193147e-02  5.0105566283438929e-01 3.0836093791402752e-01 7.3981492135867091e-02  5.0099475966410911e-01 3.0810648750421488e-01 7.3946290146612401e-02  5.0094049859637346e-01 3.0789129303704910e-01 7.3907802172000367e-02  5.0089674131100881e-01 3.0773578925704370e-01 7.3865668517976005e-02  5.0086604892339914e-01 3.0765163509621440e-01 7.3820822240378337e-02  5.0085112097802542e-01 3.0764968042927676e-01 7.3775129961324043e-02  5.0085451788929802e-01 3.0773842155410952e-01 7.3731457756054983e-02  5.0087480490575442e-01 3.0790190659695788e-01 7.3695073801033920e-02  5.0096789099990324e-01 3.0843919690234373e-01 7.3658398686508961e-02  5.0114521251879407e-01 3.0939791878127770e-01 7.3627751364879021e-02  5.0145709490699764e-01 3.1104078303974936e-01 7.3599084124753106e-02  5.0284634189025879e-01 3.1804890185486406e-01 7.3644198420745932e-02  5.0377461676287993e-01 3.2253018373020287e-01 7.3782590869946027e-02  5.0490567293394994e-01 3.2782006495535132e-01 7.4039614395775000e-02  5.0629485943299568e-01 3.3412853650486468e-01 7.4448740931539498e-02  5.0798336317302073e-01 3.4158746701103060e-01 7.5043129579944176e-02  5.1000436179321329e-01 3.5028201197694625e-01 7.5855485953060020e-02  5.1238312748506354e-01 3.6025225754299206e-01 7.6917406378775560e-02  5.1513674555174871e-01 3.7149351158709099e-01 7.8259845258283681e-02  5.1826924834734234e-01 3.8393469496507138e-01 7.9909540408510255e-02  5.2181029300570014e-01 3.9757292757504598e-01 8.1926205696384646e-02  5.2567161372688531e-01 4.1199787461907955e-01 8.4274896688494180e-02  5.2976622214557134e-01 4.2678042789755199e-01 8.6942968390941650e-02  5.3800447498400206e-01 4.5472524363795291e-01 9.2991488058018407e-02  5.4371364393049759e-01 4.7288854388339308e-01 9.7617619684656765e-02  5.5030307339874940e-01 4.9293683722697390e-01 1.0322780047279492e-01  5.5755528488395978e-01 5.1388538917826387e-01 1.0974813026419017e-01  5.6524473885094617e-01 5.3488559626890275e-01 1.1701670595928777e-01  5.7313334679494821e-01 5.5521921994967527e-01 1.2480316004329720e-01  5.8111445972634568e-01 5.7463825497263732e-01 1.3296226787681859e-01  5.9516876162015575e-01 6.0813116119358512e-01 1.4612515668413462e-01  5.9886916027114356e-01 6.1758990797769342e-01 1.4846835545904008e-01  6.0085734575535188e-01 6.2376719838219008e-01 1.4846660991993305e-01  6.0179317376883534e-01 6.2781680245265514e-01 1.4721857539634975e-01  6.0191063054468641e-01 6.3020053294296574e-01 1.4507773620962663e-01  6.0155404058155160e-01 6.3137848069795133e-01 1.4269708450581442e-01  6.0105847599487050e-01 6.3176309422527221e-01 1.4071841562811532e-01  6.0131850291522126e-01 6.3197408247093345e-01 1.4131231123637075e-01  6.0318239962495790e-01 6.3269134059262788e-01 1.4642399671663389e-01  6.0664097107258541e-01 6.3375213808999842e-01 1.5618855972938633e-01  6.1169265975632281e-01 6.3436991725121528e-01 1.7145864655238183e-01  6.1824865138046570e-01 6.3326596151636194e-01 1.9341706481618107e-01  6.2600200831479247e-01 6.2874283494408068e-01 2.2314893962601046e-01  6.3449512107321959e-01 6.1867427007279685e-01 2.6191173257222666e-01  6.4322763557577112e-01 6.0053644427048347e-01 3.1142498179616518e-01  6.5175726452053606e-01 5.6998292114666005e-01 3.7578103084123066e-01  6.6267428173151277e-01 4.4002854657170298e-01 5.6767331957586475e-01  6.6031632963978193e-01 3.9024622599417669e-01 6.1768902608784060e-01  6.5574478970684180e-01 3.5049803333952922e-01 6.4682549891750207e-01  6.5048485957483881e-01 3.2020880597383389e-01 6.6151883096838737e-01  6.4571574332236192e-01 2.9894826112503103e-01 6.6715156362818784e-01  6.4089288467187666e-01 2.8363108349274990e-01 6.6541844104330927e-01  6.3707027372561442e-01 2.7499422591495010e-01 6.5988350550724928e-01  6.3172360493673396e-01 2.6447404876332564e-01 6.5015700590175785e-01  6.1632816205599505e-01 2.3955920348234197e-01 6.1522829673979706e-01  6.1280034449937848e-01 2.3556833924655354e-01 6.0538453144894966e-01  6.1173026618809345e-01 2.3559946632515955e-01 6.0134373522118101e-01  6.1260811139782201e-01 2.3828990441938658e-01 6.0246173039890416e-01  6.1513114335550656e-01 2.4277242186442724e-01 6.0827511466774775e-01  6.1902826810684808e-01 2.4835982962981423e-01 6.1819886838034155e-01  6.2419198998351921e-01 2.5458071372917307e-01 6.3205834538921801e-01  6.3875489806321206e-01 2.6711857732836869e-01 6.7408742790293530e-01  6.4413056892541531e-01 2.7027900122370729e-01 6.9037707518295877e-01  6.4798903601407409e-01 2.7181851015437358e-01 7.0252491930016914e-01  6.5033156128365932e-01 2.7199655007845203e-01 7.1051995767944953e-01  6.5049112193637526e-01 2.6902472953899736e-01 7.1388566904680451e-01  6.4844911344295952e-01 2.6405245798994270e-01 7.1143496879492418e-01  6.4499318250894588e-01 2.5686605734467072e-01 7.0591100183157141e-01  6.4015929993003506e-01 2.4790627961649414e-01 6.9673370455058370e-01  6.3403059222068625e-01 2.3782889114065670e-01 6.8327795937423919e-01  6.2683966980844619e-01 2.2730000788195617e-01 6.6547111224992295e-01  6.1888558895035506e-01 2.1706801251981034e-01 6.4352593921624257e-01  6.1050338957574912e-01 2.0783849842791641e-01 6.1803229759497480e-01  6.0220901234888602e-01 2.0023414333773554e-01 5.9054430116195888e-01  5.8684202593812218e-01 1.9141872088792181e-01 5.3279627697132725e-01  5.7836372456081064e-01 1.8998006448897020e-01 4.9702051772937150e-01  5.7024657330944950e-01 1.9110937352202040e-01 4.6026685822578933e-01  5.6283684099324338e-01 1.9486895730466311e-01 4.2420259381030162e-01  5.5631253520119872e-01 2.0116518330074826e-01 3.8988270999925329e-01  5.5076259928470794e-01 2.0986656467580436e-01 3.5792152139193434e-01  5.4614772707997639e-01 2.2057786478874045e-01 3.2852174111177945e-01  5.4236710614974371e-01 2.3282309497205800e-01 3.0163809415907300e-01  5.3930223685654566e-01 2.4611610466178083e-01 2.7713067044986578e-01  5.3673296147900751e-01 2.5961014987102160e-01 2.5472217362858435e-01  5.3447436078459265e-01 2.7257048965315583e-01 2.3420605806079481e-01  5.3237929074149182e-01 2.8435113346693869e-01 2.1548584942984550e-01  5.3021544766971573e-01 2.9393775970349423e-01 1.9842740873343789e-01  5.2797646035700352e-01 3.0103878496287473e-01 1.8324634441805759e-01  5.2547070113342975e-01 3.0484483076206792e-01 1.6979742684968541e-01  5.1989165878123622e-01 3.0235402682068047e-01 1.4904219916313660e-01  5.1697165305544479e-01 2.9639920043948809e-01 1.4193126004742224e-01  5.1398975145003867e-01 2.8774721296117528e-01 1.3662801340667935e-01  5.1098479077780923e-01 2.7638525896403193e-01 1.3319513553345982e-01  5.0804073373561709e-01 2.6279961036120292e-01 1.3150209343306066e-01  5.0519115808234172e-01 2.4704702905576637e-01 1.3154207441761800e-01  5.0242938755753608e-01 2.2869560355079110e-01 1.3348198764205768e-01  4.9740389381762706e-01 1.8286492490703635e-01 1.4447735153386992e-01  4.9641159188887241e-01 1.6729041578309134e-01 1.5064908765688989e-01  4.9610333399562340e-01 1.5493273334485977e-01 1.5730433325157986e-01  4.9634737779148147e-01 1.4484274008354947e-01 1.6465067168545680e-01  4.9707327851807642e-01 1.3659532619473641e-01 1.7276187420354686e-01  4.9823199658639855e-01 1.3000560257807994e-01 1.8162237979061452e-01  4.9976482284893153e-01 1.2495500396981660e-01 1.9111582388245571e-01  5.0155799774431775e-01 1.2137082824937884e-01 2.0084724871410908e-01  5.0514795062468121e-01 1.1827542373284845e-01 2.1801687594084512e-01  5.0851009863648067e-01 1.1726138438629652e-01 2.3312614124228997e-01  5.1338080546805887e-01 1.1685118605185249e-01 2.5459004052884809e-01  5.3058579304074271e-01 1.2032870839893990e-01 3.2858068693381359e-01  5.4027714606174904e-01 1.2472476617636760e-01 3.6899742158971521e-01  5.5117823081082118e-01 1.3145922233446677e-01 4.1298256508749015e-01  5.6386979020747552e-01 1.4142447915397080e-01 4.6180675420682393e-01  5.7879438834754449e-01 1.5600285784302040e-01 5.1524678199732110e-01  5.9656928094389083e-01 1.7727043661976388e-01 5.7232803461795845e-01  6.1775229977356338e-01 2.0839243212434644e-01 6.2969369224427285e-01  6.7438909495195032e-01 3.2500541790791831e-01 7.1790371818332055e-01  6.9432991489799489e-01 3.8304748047319642e-01 7.1587004179171565e-01  7.0981919778342339e-01 4.3968786246789571e-01 6.9263741247979171e-01  7.2153968122727952e-01 4.9389335312816024e-01 6.5501810497582635e-01  7.2987849302160823e-01 5.4400553825453635e-01 6.0912965572141931e-01  7.3525704248901658e-01 5.8875804556993694e-01 5.6012127587661464e-01  7.3813389927761131e-01 6.2741131951556517e-01 5.1193110476480241e-01  7.3902373399208454e-01 6.5977709975846988e-01 4.6729724455449745e-01  7.3848772315044653e-01 6.8617060323336210e-01 4.2781584770385384e-01  7.3703513616167804e-01 7.0707432732007969e-01 3.9431324856046135e-01  7.3515027365517194e-01 7.2312959626584461e-01 3.6704622474880888e-01  7.3323409394609607e-01 7.3491652200586599e-01 3.4602628265206159e-01  7.3162065875464533e-01 7.4295997319939078e-01 3.3112648614403833e-01  7.3055583615553665e-01 7.4763046140631262e-01 3.2224664254750568e-01  7.3056310140733505e-01 7.4749269634361115e-01 3.2246874448942148e-01  7.3167651700799885e-01 7.4219046344906914e-01 3.3238919786888071e-01  7.3331795916400211e-01 7.3312543713726253e-01 3.4887871542862620e-01  7.3521581905440314e-01 7.1993115821551079e-01 3.7196924737051684e-01  7.3701592565165719e-01 7.0216864392271605e-01 4.0159825438471286e-01  7.3816227002159718e-01 6.5888026843803860e-01 4.6687902316094515e-01  7.3863897838529047e-01 6.7950183454289137e-01 4.3804054074389182e-01  7.3877098423886145e-01 6.9086858914659066e-01 4.2165549647731720e-01  7.3878161657113395e-01 6.9820590124139192e-01 4.1085753104936118e-01  7.3875344950511024e-01 7.0262808729045556e-01 4.0426006650351581e-01  7.3875784593857674e-01 7.0220586392336604e-01 4.0489413493439619e-01  7.3878808925449613e-01 6.9634946610775561e-01 4.1361552817908509e-01  7.3872787748214097e-01 6.8739116303739123e-01 4.2669834628750214e-01  7.3086542914164365e-01 5.5367031007886602e-01 5.9767431027926776e-01  7.2328726359927020e-01 4.9751131592745135e-01 6.5408570821628564e-01  7.1308296118822179e-01 4.4205893501595495e-01 6.9823377308350321e-01  7.0025403647179152e-01 3.8752403693889936e-01 7.2854800560907129e-01  6.8500640430760429e-01 3.3535715869973853e-01 7.4250839402681246e-01  6.6779690788110491e-01 2.8737032790355899e-01 7.3848590773616674e-01  6.4913491947499180e-01 2.4496609120434704e-01 7.1618329091761357e-01  6.2945500178227942e-01 2.0876349774177660e-01 6.7666263926154424e-01  6.0878541257631158e-01 1.7824401784073363e-01 6.2113996632395019e-01  5.6368642424018900e-01 1.3010496569010407e-01 4.6750490307952952e-01  5.4930545424890576e-01 1.1934847924300618e-01 4.1177675841326461e-01  5.3814114584797601e-01 1.1309279581965828e-01 3.6634202710412844e-01  5.2926409260260521e-01 1.0999304744481157e-01 3.2874763948097274e-01  5.2203452447126220e-01 1.0923090659713057e-01 2.9705309113045653e-01  5.1612169348182979e-01 1.1037846303867037e-01 2.7019530254170016e-01  5.1127904737796714e-01 1.1316687397165981e-01 2.4726644939077858e-01  5.0734840946863158e-01 1.1741898394219510e-01 2.2763100135837885e-01  5.0422818490053656e-01 1.2299761774574232e-01 2.1084627963364583e-01  5.0186168309987600e-01 1.2971626929692082e-01 1.9668436924367663e-01  5.0020674722251424e-01 1.3734813910935142e-01 1.8500363198855568e-01  4.9922742658269764e-01 1.4542305192405500e-01 1.7585942044989425e-01  4.9910616615627901e-01 1.6119017086529630e-01 1.6523561728870820e-01  4.9996254010661129e-01 1.7569834178517446e-01 1.5919298915790808e-01  5.0147237490702290e-01 1.9463552552710447e-01 1.5260570871705545e-01  5.0357730025247804e-01 2.1833488704673723e-01 1.4481361884946911e-01  5.0388944683109060e-01 2.5419321085582597e-01 1.2164392884170568e-01  5.0228402606896771e-01 2.5211738660429001e-01 1.1709406521611737e-01  5.0128823209692941e-01 2.4994300273557812e-01 1.1488422691943814e-01  5.0126660086072483e-01 2.4989406020786328e-01 1.1483741489306419e-01  5.0218506052913159e-01 2.5235336528067814e-01 1.1655942130421089e-01  5.0364799769058954e-01 2.5711412383119675e-01 1.1870704745149865e-01  5.0555481805072033e-01 2.6522632101510674e-01 1.2014462538565222e-01  5.0899401717923798e-01 2.8620458718532071e-01 1.1812142097527237e-01  5.0870784237616951e-01 2.8910002683780545e-01 1.1504013536534111e-01  5.0729534918236951e-01 2.8684658985298866e-01 1.1148083325115742e-01  5.0585754067455768e-01 2.8339266545053071e-01 1.0867536455659840e-01  5.0534300172301039e-01 2.8209422842271548e-01 1.0771366617529374e-01  5.0589889013295541e-01 2.8369512203587310e-01 1.0860611937901102e-01  5.0748524037612164e-01 2.8825319166280516e-01 1.1114732235608228e-01  5.1075341107072425e-01 2.9824163202552023e-01 1.1587560342401222e-01  5.3028925234900759e-01 3.7035982294195469e-01 1.3328548001817511e-01  5.3864150031689451e-01 4.0413385659409962e-01 1.3723189821321652e-01  5.4535064316942627e-01 4.3145089968441674e-01 1.3933914833235522e-01  5.5082844032744072e-01 4.5371771694777985e-01 1.4042659671051810e-01  5.5493618571112668e-01 4.7033254755570364e-01 1.4089202943515594e-01  5.5925819814225308e-01 4.8726319557703007e-01 1.4133019012346387e-01  5.6262395656963948e-01 4.9992031840255774e-01 1.4174239685731299e-01  5.6654338028