<?xml version="1.0"?>
<VTKFile type="UnstructuredGrid"  version="0.1"  >
<UnstructuredGrid>
<Piece  NumberOfPoints="7288" NumberOfCells="14083">
<Points>
<DataArray  type="Float64"  NumberOfComponents="3"  format="ascii">239.8 188 0  250.2 180 0  258.2 172.4 0  257 169.4 0  259.9 157.4 0  258.7 150.3 0  261 143.5 0  251.7 144.4 0  250 138.7 0  247 138.1 0  245.2 130.8 0  247.3 126.4 0  242.7 118.6 0  231.2 107.7 0  226 102.4 0  226.5 93.90000000000001 0  224.5 91.19999999999999 0  224.5 84.09999999999999 0  234.5 73.80000000000001 0  228.4 68.90000000000001 0  230 70 0  233.4 68 0  222.7 61.5 0  220.6 45.5 0  223.4 49.40000000000001 0  224 47 0  221.8 43.09999999999999 0  221 38.40000000000001 0  219.5 38.5 0  219.4 41.69999999999999 0  217.1 36.90000000000001 0  209.7 36 0  209.5 31.69999999999999 0  205.1 29.90000000000001 0  201.5 30.40000000000001 0  199.2 38.69999999999999 0  201.8 41.40000000000001 0  194.8 53.80000000000001 0  196.1 57.69999999999999 0  193 59 0  191.4 66.09999999999999 0  193.5 66.5 0  194.1 64.40000000000001 0  195.6 64.69999999999999 0  195.4 72.40000000000001 0  199.5 77.30000000000001 0  197.7 86.90000000000001 0  200.6 87.5 0  201.5 91 0  198 94.80000000000001 0  198.6 100 0  197.3 105.4 0  198 109.5 0  197 112.7 0  198.3 116.1 0  201.3 122 0  207.2 121 0  208.1 126.7 0  205.6 127.9 0  209.1 134.9 0  210.9 144.4 0  210.1 147.9 0  213 148.4 0  215.4 149.3 0  215.1 152.8 0  219.9 159.7 0  220.3 163.2 0  218.7 164.9 0  219.9 166.7 0  221.9 169.7 0  220 170.3 0  224.9 174.7 0  229.8 177.4 0  229.7 181 0  228 172.9 0  239 178 0  240.4 180 0  239 181.5 0  241.2 185.9 0  242.95 187.99 0  240.5875 187.9975 0  241.375 187.995 0  242.1625 187.9925 0  243.6090909090879 187.2636363636397 0  244.2681818181765 186.5372727272785 0  244.9272727272692 185.810909090913 0  245.5863636363531 185.0845454545571 0  246.245454545445 184.3581818181923 0  246.9045454545351 183.6318181818295 0  247.5636363636303 182.9054545454612 0  248.2227272727197 182.1790909090992 0  248.8818181818179 181.4527272727275 0  249.5409090909066 180.7263636363664 0  250.8666666666961 179.3666666666387 0  251.5333333334033 178.7333333332668 0  252.2000000000994 178.0999999999055 0  252.8666666668011 177.466666666539 0  253.5333333335083 176.8333333331671 0  254.2000000002044 176.1999999998058 0  254.8666666669005 175.5666666664445 0  255.5333333336077 174.9333333330727 0  256.2000000002685 174.2999999997449 0  256.8666666668457 173.6666666664966 0  257.5333333334283 173.033333333243 0  257.9000000000077 171.6500000000191 0  257.6000000000015 170.9000000000038 0  257.2999999999954 170.1499999999885 0  257.2230769230778 168.4769230769195 0  257.4461538461543 167.5538461538442 0  257.6692307692309 166.6307692307688 0  257.8923076923074 165.7076923076935 0  258.115384615384 164.7846153846181 0  258.3384615384605 163.8615384615427 0  258.5615384615395 162.9384615384572 0  258.784615384616 162.0153846153819 0  259.0076923076926 161.0923076923065 0  259.2307692307691 160.1692307692311 0  259.4538461538457 159.2461538461558 0  259.6769230769222 158.3230769230804 0  259.750000000001 156.512500000006 0  259.6000000000014 155.6250000000082 0  259.4500000000029 154.7375000000176 0  259.3000000000018 153.8500000000108 0  259.1500000000007 152.962500000004 0  259.0000000000004 152.0750000000026 0  258.849999999999 151.187499999994 0  258.9875000000052 149.4499999999846 0  259.275000000002 148.5999999999941 0  259.5624999999954 147.7500000000135 0  259.849999999995 146.900000000015 0  260.1374999999945 146.0500000000164 0  260.4249999999913 145.2000000000259 0  260.7124999999948 144.3500000000154 0  260.0700000000398 143.5899999999961 0  259.1400000000573 143.6799999999944 0  258.2100000000351 143.7699999999966 0  257.2800000000262 143.8599999999975 0  256.350000000011 143.9499999999989 0  255.4199999999881 144.0400000000011 0  254.4899999999726 144.1300000000026 0  253.5599999999944 144.2200000000005 0  252.6300000000009 144.3099999999999 0  251.4166666666658 143.4499999999971 0  251.1333333333388 142.5000000000182 0  250.8500000000015 141.5500000000051 0  250.5666666666612 140.5999999999818 0  250.2833333333342 139.6500000000029 0  249.2500000000005 138.5500000000001 0  248.5000000000011 138.4000000000002 0  247.7499999999995 138.2499999999999 0  246.7750000000005 137.1875000000023 0  246.5500000000021 136.2750000000085 0  246.3250000000036 135.3625000000147 0  246.1000000000042 134.450000000017 0  245.8750000000022 133.5375000000088 0  245.650000000003 132.6250000000124 0  245.4250000000046 131.7125000000187 0  245.619999999996 129.9200000000084 0  246.0399999999992 129.0400000000017 0  246.4599999999987 128.1600000000028 0  246.8800000000001 127.2799999999997 0  246.8399999999988 125.6199999999979 0  246.3799999999984 124.8399999999973 0  245.9199999999991 124.0599999999985 0  245.4600000000036 123.2800000000062 0  245.0000000000049 122.5000000000082 0  244.5400000000036 121.7200000000062 0  244.0800000000033 120.9400000000056 0  243.6200000000016 120.1600000000027 0  243.1600000000012 119.3800000000021 0  241.9812499999996 117.9187499999997 0  241.2625000000007 117.2375000000007 0  240.5437500000017 116.5562500000017 0  239.8250000000041 115.875000000004 0  239.1062500000066 115.1937500000063 0  238.3875000000076 114.5125000000072 0  237.6687500000087 113.8312500000082 0  236.9500000000083 113.1500000000079 0  236.231250000008 112.4687500000076 0  235.512500000009 111.7875000000085 0  234.7937500000045 111.1062500000043 0  234.0750000000042 110.4250000000039 0  233.3562500000066 109.7437500000062 0  232.6375000000021 109.062500000002 0  231.9187500000031 108.381250000003 0  230.5500000000004 107.0375000000004 0  229.9000000000021 106.3750000000021 0  229.2500000000038 105.7125000000039 0  228.6000000000041 105.0500000000042 0  227.9500000000018 104.3875000000018 0  227.2999999999952 103.7249999999951 0  226.6500000000024 103.0625000000024 0  226.0555555555555 101.4555555555556 0  226.1111111111111 100.5111111111111 0  226.1666666666667 99.56666666666668 0  226.2222222222222 98.62222222222223 0  226.2777777777778 97.67777777777778 0  226.3333333333333 96.73333333333335 0  226.3888888888889 95.78888888888889 0  226.4444444444445 94.84444444444446 0  226 93.22499999999999 0  225.5000000000026 92.55000000000358 0  225.0000000000026 91.87500000000358 0  224.5 90.31250000000068 0  224.5 89.4250000000097 0  224.5 88.53750000001317 0  224.5 87.65000000001388 0  224.5 86.76250000001457 0  224.5 85.87500000001248 0  224.5 84.9874999999993 0  225.1666666666659 83.41333333333409 0  225.8333333333319 82.72666666666818 0  226.4999999999978 82.04000000000228 0  227.1666666666649 81.35333333333514 0  227.8333333333301 80.66666666667 0  228.4999999999942 79.980000000006 0  229.1666666666601 79.2933333333401 0  229.8333333333316 78.60666666666847 0  230.4999999999975 77.92000000000257 0  231.1666666666644 77.23333333333572 0  231.8333333333295 76.54666666667057 0  232.4999999999972 75.86000000000287 0  233.1666666666681 75.17333333333181 0  233.8333333333368 74.48666666666306 0  233.7499999999995 73.16666666666629 0  233.0000000000018 72.53333333333488 0  232.2500000000014 71.90000000000116 0  231.5000000000009 71.26666666666743 0  230.7500000000005 70.63333333333372 0  229.233333333333 68.75000000000006 0  230.0666666666665 68.60000000000004 0  230.8999999999995 68.45000000000009 0  231.7333333333325 68.30000000000015 0  232.566666666667 68.14999999999995 0  232.5499999999897 68.50000000000607 0  231.7 69 0  230.8500000000103 69.49999999999393 0  227.8300000000008 68.16000000000106 0  227.2600000000064 67.42000000000837 0  226.6900000000077 66.68000000001001 0  226.1200000000024 65.94000000000314 0  225.5500000000108 65.20000000001409 0  224.9800000000098 64.46000000001268 0  224.4100000000007 63.72000000000098 0  223.8399999999971 62.97999999999621 0  223.2699999999993 62.23999999999915 0  222.753846153846 60.56923076923239 0  222.8076923076921 59.63846153846478 0  222.8615384615381 58.70769230769827 0  222.9153846153842 57.77692307693071 0  222.9692307692302 56.84615384616315 0  223.0230769230761 55.91538461539836 0  223.0769230769224 54.98461538462665 0  223.1307692307688 54.05384615385345 0  223.184615384615 53.12307692308312 0  223.2384615384611 52.19230769231556 0  223.2923076923071 51.26153846154906 0  223.3461538461533 50.33076923077847 0  222.8400000000024 48.62000000000327 0  222.2800000000047 47.84000000000661 0  221.7200000000005 47.06000000000071 0  221.1600000000003 46.28000000000039 0  221.4500000000116 45.87500000000512 0  222.3 46.25 0  223.1499999999884 46.62499999999488 0  223.5600000000055 46.22000000000981 0  223.1199999999987 45.43999999999767 0  222.6800000000061 44.66000000001075 0  222.2399999999969 43.8799999999944 0  221.6400000000004 42.16000000000253 0  221.4800000000009 41.22000000000548 0  221.3200000000014 40.28000000000801 0  221.1600000000009 39.34000000000556 0  220.25 38.45 0  219.4749999999999 39.30000000000165 0  219.45 40.09999999999999 0  219.425 40.90000000000112 0  219.0166666666641 40.89999999999463 0  218.6333333333375 40.10000000000875 0  218.2500000000016 39.30000000000339 0  217.8666666666635 38.49999999999351 0  217.483333333337 37.70000000000762 0  216.1750000000165 36.78750000000201 0  215.2500000000275 36.67500000000335 0  214.3250000000385 36.56250000000469 0  213.4000000000277 36.45000000000337 0  212.4750000000059 36.33750000000072 0  211.5499999999838 36.22499999999803 0  210.6249999999835 36.11249999999799 0  209.6600000000001 35.14000000000318 0  209.6200000000001 34.28000000000268 0  209.5800000000001 33.42000000000284 0  209.5399999999998 32.55999999999681 0  208.6200000000117 31.34000000000476 0  207.7400000000138 30.98000000000564 0  206.8600000000162 30.62000000000662 0  205.9800000000174 30.26000000000711 0  204.2000000000054 30.02499999999925 0  203.2999999999946 30.15000000000076 0  202.3999999999945 30.27500000000076 0  201.2444444444438 31.32222222222468 0  200.9888888888895 32.24444444
[...]
<PointData  Vectors="f_12"> 
<DataArray  type="Float64"  Name="f_12"  NumberOfComponents="3" format="ascii">5.0433441359742004e-01 3.2578762124283767e-01 7.3435112216916260e-02  5.0669866939870012e-01 3.3745189184116137e-01 7.3504369465002412e-02  5.0986341016483216e-01 3.5271552016579721e-01 7.3675952006838574e-02  5.1096271816290439e-01 3.5784485089668477e-01 7.3807061493150874e-02  5.1783182489617063e-01 3.8921864619459828e-01 7.4649953028812679e-02  5.2139407788536751e-01 4.0484672505481972e-01 7.5222145722376524e-02  5.2261533945605154e-01 4.1019167588661204e-01 7.5380986019926516e-02  5.2599755912705659e-01 4.2405855245031820e-01 7.6350472979785325e-02  5.3164059351021320e-01 4.4688232481078477e-01 7.7831970387086127e-02  5.3503019441145550e-01 4.5998008371896326e-01 7.8899774959565142e-02  5.5359736603970999e-01 5.2646084786989755e-01 8.5777878028464608e-02  5.6388641290328922e-01 5.5961136828941838e-01 9.0351954490537401e-02  6.0047156286243542e-01 6.4917817503752062e-01 1.1843653744032816e-01  7.3742249999166065e-01 7.2754444606476709e-01 3.6123784918680119e-01  7.7656836441142407e-01 6.2913907175115147e-01 5.6451348718171623e-01  7.8040470685080776e-01 5.1138850084906973e-01 7.2761467209081276e-01  7.7103695706956010e-01 4.5830555248220811e-01 7.7914880983774226e-01  7.1628201751255227e-01 2.7882773055605242e-01 8.6551254724079729e-01  6.6620773795376320e-01 1.7859477141955291e-01 8.1765388049865562e-01  5.8442625056816699e-01 1.1445846681977573e-01 5.5691772491264180e-01  6.0798177535257869e-01 1.2347746254853545e-01 6.4903964852098439e-01  6.0711440583385157e-01 1.1568341190980445e-01 6.5635752567023575e-01  5.1572559949739172e-01 2.0466199077844210e-01 2.0394735471688893e-01  6.7900310338096170e-01 5.2328239999862103e-01 5.1499829264719754e-01  6.1932380512327323e-01 3.5695160971172446e-01 5.0962047469448413e-01  6.9789235360539970e-01 5.8563197275561341e-01 4.8750017769999821e-01  6.9464533838439535e-01 5.9795563722589096e-01 4.6264814739343185e-01  7.0187937220675256e-01 6.7089600520027926e-01 3.7935283540738002e-01  7.0182877710707836e-01 6.7062237031627858e-01 3.7961945376362000e-01  6.9357543560056878e-01 6.2409357245997377e-01 4.2447110704766028e-01  6.7569188916529210e-01 6.6218719911022894e-01 3.2750513328028036e-01  6.0646267856451641e-01 5.5168929444510273e-01 2.4257908036512152e-01  5.5041557425047571e-01 4.5391379479098332e-01 1.3902732760911854e-01  5.3436940899746932e-01 4.1335889688300897e-01 1.1504570844461355e-01  5.3319613441325919e-01 4.0955413217935915e-01 1.1389909981546577e-01  5.8462558826436828e-01 4.9804840684712182e-01 2.2564741724962245e-01  6.0694237754010283e-01 4.4619644348927301e-01 3.6647893143063737e-01  5.1238958501118503e-01 1.8459634021644697e-01 2.0727489755373382e-01  5.0047617503420117e-01 1.5796609864001851e-01 1.7405773928230134e-01  4.9503966887128603e-01 1.3542936392787247e-01 1.6543266025663242e-01  5.1325237807213664e-01 8.5632873992473449e-02 2.6886095610370153e-01  5.1236916235293961e-01 8.8356370476852727e-02 2.6345141080546775e-01  4.9830788825145028e-01 1.1778888319073426e-01 1.8820421402251558e-01  5.0233875078003609e-01 1.0957695029957927e-01 2.0932799666796878e-01  5.2637639033577155e-01 8.3601269445307463e-02 3.2709749396591675e-01  5.8219550575416024e-01 1.0573047905501755e-01 5.5374894323653145e-01  6.9739315144209391e-01 2.3945257089881461e-01 8.5758016795321368e-01  7.1168912866397194e-01 2.7556773396127227e-01 8.5925443000231805e-01  7.5648263327075282e-01 4.2094175488262431e-01 7.9990796935424302e-01  7.8043466015211893e-01 5.5110790920164199e-01 6.7728296441455915e-01  7.8097680688470406e-01 6.3086417903743941e-01 5.6771487720224478e-01  7.6654625830351297e-01 7.0957776385265947e-01 4.3275892839432850e-01  7.4533565378314859e-01 7.4961448155057697e-01 3.4051373407205759e-01  7.2702127390721638e-01 7.7056980072348502e-01 2.7904773105173214e-01  7.1116405217897938e-01 7.7855719382795097e-01 2.3849048854820029e-01  6.8850046703188272e-01 7.7863140934181674e-01 1.9339785894692010e-01  6.7401069736621000e-01 7.5459275002743398e-01 1.9272734018908788e-01  6.0501047015597242e-01 6.5580503572042392e-01 1.2431181512642316e-01  5.9074193327841718e-01 6.2803611760406752e-01 1.1067959336313683e-01  5.6115978157191826e-01 5.4840442399403433e-01 9.1266680730919314e-02  5.3295551145844855e-01 4.5261707462043549e-01 7.7787415825440867e-02  5.3047392001920901e-01 4.4310532472348113e-01 7.6883496219906297e-02  5.2979303155705415e-01 4.4028924429991972e-01 7.6764242974625127e-02  5.2738884330343816e-01 4.3033862252439825e-01 7.6288094314435770e-02  5.2422726690935828e-01 4.1714448882454436e-01 7.5624195307882155e-02  5.1866215828438655e-01 3.9293783016644085e-01 7.4743133327351857e-02  5.1560832277840352e-01 3.7936387332572025e-01 7.4253676556198772e-02  5.1469365997361571e-01 3.7527664373294828e-01 7.4095663795919336e-02  5.1416116297109726e-01 3.7287019866370463e-01 7.4013201937874210e-02  5.1319067159119447e-01 3.6844357131407024e-01 7.3879909197767241e-02  5.1340466134552154e-01 3.6944141576870432e-01 7.3896678823339210e-02  5.1178511473627286e-01 3.6193038821228568e-01 7.3728935358481740e-02  5.0890115487157594e-01 3.4825048903274103e-01 7.3524213670869809e-02  5.0848212117182046e-01 3.4627130223471903e-01 7.3477892811930304e-02  5.1110779190502087e-01 3.5868951161865126e-01 7.3710262963363526e-02  5.0754077888222460e-01 3.4155747407849002e-01 7.3536128066411299e-02  5.0598919236120210e-01 3.3394408017574673e-01 7.3496718187031407e-02  5.0533205248075574e-01 3.3071543870595627e-01 7.3472364580584287e-02  5.0452466919860950e-01 3.2673087865202444e-01 7.3441192150004997e-02  5.0441606510439252e-01 3.2619331556730713e-01 7.3437291634047261e-02  5.0434445361510949e-01 3.2583747538794855e-01 7.3435402409839104e-02  5.0436663386197933e-01 3.2594766016971360e-01 7.3436013030552666e-02  5.0439274212870178e-01 3.2607741454104716e-01 7.3436691189488618e-02  5.0447419074766209e-01 3.2648189810179545e-01 7.3438889199085491e-02  5.0457967945757287e-01 3.2700540233491771e-01 7.3441792345225715e-02  5.0471949242076541e-01 3.2769884895921697e-01 7.3445609834186354e-02  5.0488842187220595e-01 3.2853606266097063e-01 7.3450190251181630e-02  5.0508390335696840e-01 3.2950393491891100e-01 7.3455485634712436e-02  5.0530258006318707e-01 3.3058540640514117e-01 7.3461422312397370e-02  5.0554408322405642e-01 3.3177803329255701e-01 7.3468140566357337e-02  5.0580536642185070e-01 3.3306621764116734e-01 7.3475654926163592e-02  5.0608378145623967e-01 3.3443627934892139e-01 7.3484020636469541e-02  5.0638083324315541e-01 3.3589486581891359e-01 7.3493528341779690e-02  5.0700396356982735e-01 3.3894412799808121e-01 7.3515374721357885e-02  5.0730569262818270e-01 3.4041543992663098e-01 7.3526949900020677e-02  5.0760965257737722e-01 3.4189379683037152e-01 7.3539527050007894e-02  5.0791479605294731e-01 3.4337396670964004e-01 7.3553145890112567e-02  5.0821843759024532e-01 3.4484278832486059e-01 7.3567772650805538e-02  5.0851727790340950e-01 3.4628433965960059e-01 7.3583300257816148e-02  5.0880960105571771e-01 3.4769014730497866e-01 7.3599866545926332e-02  5.0908986508138776e-01 3.4903372398223959e-01 7.3617213748101568e-02  5.0935048874386013e-01 3.5027907264938629e-01 7.3634870132345473e-02  5.0958165705312630e-01 3.5137996290004248e-01 7.3652071184931570e-02  5.0976544020650016e-01 3.5225219126724489e-01 7.3667110315463913e-02  5.0995904005171455e-01 3.5316334801416510e-01 7.3687062699438602e-02  5.1016671729569152e-01 3.5413397293323873e-01 7.3711880781162739e-02  5.1047985430390608e-01 3.5559508652102106e-01 7.3749560758367333e-02  5.1159871883614938e-01 3.6080284904250098e-01 7.3881471739239590e-02  5.1217361086296032e-01 3.6346961688853896e-01 7.3948073813007983e-02  5.1273796295206198e-01 3.6607988231260952e-01 7.4013222374440482e-02  5.1329991291127364e-01 3.6867101043368855e-01 7.4078243798102350e-02  5.1385981702295913e-01 3.7124426189423204e-01 7.4143521864374340e-02  5.1441587649857601e-01 3.7379109070583361e-01 7.4209152618049556e-02  5.1496525364885093e-01 3.7629836167548597e-01 7.4275058516881487e-02  5.1550489861201099e-01 3.7875228118312343e-01 7.4341090884911268e-02  5.1603023490439681e-01 3.8113214654967048e-01 7.4406892901656155e-02  5.1653810686139756e-01 3.8342394470022623e-01 7.4472350500304596e-02  5.1702001896289118e-01 3.8559022755632233e-01 7.4536360169337457e-02  5.1746532270961221e-01 3.8758408375367498e-01 7.4597592130647372e-02  5.1818069866997962e-01 3.9076692359159254e-01 7.4702631507283429e-02  5.1859278668836695e-01 3.9258913754268498e-01 7.4766841046615309e-02  5.1903522541360136e-01 3.9453898747695648e-01 7.4837342958628983e-02  5.1949200154989972e-01 3.9654545230585198e-01 7.4911479544800166e-02  5.1995606799376137e-01 3.9857788532836180e-01 7.4987602257178876e-02  5.2042283307512027e-01 4.0061688452376093e-01 7.5064363694468117e-02  5.2089428343454336e-01 4.0267173884823426e-01 7.5141584919070678e-02  5.2180853486933743e-01 4.0665252964061360e-01 7.5284766399056069e-02  5.2210161336410332e-01 4.0792987179940965e-01 7.5327062095004990e-02  5.2230681535051926e-01 4.0882674010745684e-01 7.5353950345954768e-02  5.2245065199812490e-01 4.0945751454806423e-01 7.5370806063624909e-02  5.2254179940365419e-01 4.0985984765120242e-01 7.5379388938642961e-02  5.2259195958226035e-01 4.1008373483223670e-01 7.5382253523437734e-02  5.2261218962566247e-01 4.1017619960511165e-01 7.5381829685767385e-02  5.2262082065768045e-01 4.1021252139867309e-01 7.5383889749366537e-02  5.2264960115631631e-01 4.1032684622286120e-01 7.5395621263186385e-02  5.2271658176782665e-01 4.1059752794892412e-01 7.5419539013600351e-02  5.2283164029701401e-01 4.1106571859973307e-01 7.5458113357682530e-02  5.2300982453546352e-01 4.1179420896790092e-01 7.5514903076269194e-02  5.2326514943650404e-01 4.1284105083330763e-01 7.5593164861831846e-02  5.2361489970952990e-01 4.1427697438676586e-01 7.5697044606284764e-02  5.2409102934898455e-01 4.1623288823052668e-01 7.5834013712271484e-02  5.2477494620574050e-01 4.1904205550590956e-01 7.6023793249957783e-02  5.2752585376899641e-01 4.3031191282354891e-01 7.6745705489628738e-02  5.2865032580103055e-01 4.3488837400699243e-01 7.7034025088391772e-02  5.2963929808381571e-01 4.3888774119907847e-01 7.7289656215002930e-02  5.3050300344753165e-01 4.4235712139360445e-01 7.7517495890220375e-02  5.3121077215310386e-01 4.4518092218224103e-01 7.7709848720990779e-02  5.3191704807675755e-01 4.4796364877570782e-01 7.7916196044552924e-02  5.3251869971052557e-01 4.5030600056701026e-01 7.8102691609420488e-02  5.3345387362234209e-01 4.5392419862248734e-01 7.8397136815739635e-02  5.3735219424885838e-01 4.6880654843851821e-01 7.9656009388628449e-02  5.3929330366536310e-01 4.7608237766141426e-01 8.0306766658779893e-02  5.4121185099974289e-01 4.8316919862207480e-01 8.0970655194414320e-02  5.4320583811867651e-01 4.9042197574163460e-01 8.1684859535676696e-02  5.4533571481586240e-01 4.9804109235584798e-01 8.2476079278712977e-02  5.4766030214868222e-01 5.0621101382053357e-01 8.3371308276531580e-02  5.5028339204331311e-01 5.1525741926941382e-01 8.4417002494713109e-02  5.5681418404389371e-01 5.3714695352771591e-01 8.7115800845783922e-02  5.5921972508150697e-01 5.4498478328091082e-01 8.8143261389404745e-02  5.6122334098150517e-01 5.5137852796983222e-01 8.9039653063678184e-02  5.6285260340226806e-01 5.5646403037827175e-01 8.9816479537388291e-02  5.6501796109884883e-01 5.6290722832832985e-01 9.1028801248246236e-02  5.6705719849326552e-01 5.6871362418141203e-01 9.2314705667462027e-02  5.6975160543161729e-01 5.7620147549173750e-01 9.4085408073027996e-02  5.7302363536125245e-01 5.8504050215103220e-01 9.6322310032750311e-02  5.7678274341565050e-01 5.9486719468959237e-01 9.9001983226842796e-02  5.8099182096732926e-01 6.0546971210345468e-01 1.0213114594147010e-01  5.8559842758263347e-01 6.1659789277460719e-01 1.0571064321549942e-01  5.9052195155548437e-01 6.2795095660257361e-01 1.0972032977295551e-01  5.9561653858669106e-01 6.3911341334197780e-01 1.1407485156045709e-01  6.0627560937392566e-01 6.6038251392409897e-01 1.2397879812620319e-01  6.1326893842480112e-01 6.7286106521991651e-01 1.3106379377281935e-01  6.2100300238527839e-01 6.8548251965271045e-01 1.3938831186619910e-01  6.2937248499897691e-01 6.9774263387240276e-01 1.4900464727715174e-01  6.3823261392169395e-01 7.0921246655906156e-01 1.5988887249017381e-01  6.4746521577302318e-01 7.1952662320844907e-01 1.7205934060555592e-01  6.5697236269573811e-01 7.2841343825765925e-01 1.8555120384221158e-01  6.6663654020545371e-01 7.3565529451551315e-01 2.0035991078953075e-01  6.7632409772583812e-01 7.4110469984947247e-01 2.1642702048023912e-01  6.8595297874496497e-01 7.4466996250806516e-01 2.3378017617661642e-01  6.9541659534050160e-01 7.4633491006208030e-01 2.5235158654438289e-01  7.0460374532576031e-01 7.4612799889722303e-01 2.7202894856840293e-01  7.1348359379644988e-01 7.4406513149081011e-01 2.9287983246208249e-01  7.2189082949374528e-01 7.4021429599145705e-01 3.1463456197668405e-01  7.2987690329627541e-01 7.3467698302011897e-01 3.3743080668045750e-01  7.4398650378529907e-01 7.1952906968067409e-01 3.8419615086603071e-01  7.4993766421590402e-01 7.1048458963820738e-01 4.0728081881794548e-01  7.5535702497095736e-01 7.0049195126602604e-01 4.3058696688663667e-01  7.6026792626482764e-01 6.8947023638378535e-01 4.5429654950383497e-01  7.6470636715411788e-01 6.7752968613405840e-01 4.7834494107153763e-01  7.6875900340118353e-01 6.6437395966205992e-01 5.0329784596412586e-01  7.7256072582352797e-01 6.4920544082157239e-01 5.3046569095499907e-01  7.7971351202615136e-01 6.0821398946371619e-01 5.9811233749964388e-01  7.8146253909364649e-01 5.9211554494718133e-01 6.2269344295188822e-01  7.8248093646935690e-01 5.7788769591830991e-01 6.4342193762655386e-01  7.8297164329570135e-01 5.6474626281706564e-01 6.6172476470556274e-01  7.8303454112306370e-01 5.5234639505489713e-01 6.7825218956759292e-01  7.8272596752434298e-01 5.4054815069621098e-01 6.9329966732470549e-01  7.8210172317588722e-01 5.2937767257819968e-01 7.0693597677216691e-01  7.8125049615886111e-01 5.1917599951733362e-01 7.1886975667648167e-01  7.7942463670240658e-01 5.0441461668722565e-01 7.3503060349918969e-01  7.7767175349539219e-01 4.9335943647658947e-01 7.4633341145665122e-01  7.7508759610562583e-01 4.7883247444965110e-01 7.6044292235311439e-01  7.6582499884126565e-01 4.3437917047571101e-01 7.9924888905894131e-01  7.6075703636115788e-01 4.1328556388766147e-01 8.1523016944143079e-01  7.5534076856825239e-01 3.9272501821553130e-01 8.2898016728308688e-01  7.4940517543224072e-01 3.7203391758605731e-01 8.4086320869903441e-01  7.4285634975133297e-01 3.5098461747520204e-01 8.5077754658136806e-01  7.3548722288232637e-01 3.2917658559346996e-01 8.5845131119491103e-01  7.2709682796046815e-01 3.0623521290773592e-01 8.6349601869163461e-01  7.0624788981654874e-01 2.5492454189306168e-01 8.6387073374834211e-01  6.9921959295462599e-01 2.3922750733534767e-01 8.6039676690015066e-01  6.9342310345592417e-01 2.2705717722552068e-01 8.5591504038583588e-01  6.8843779839146579e-01 2.1715565029117961e-01 8.5092745802858893e-01  6.8406761989274534e-01 2.0889733544446729e-01 8.4573662018810447e-01  6.8020541472422646e-01 2.0191802564116210e-01 8.4054231089998555e-01  6.7682072089958623e-01 1.9603608979671902e-01 8.3554479155180483e-01  6.7391933558538530e-01 1.9115466489656721e-01 8.3094917820864933e-01  6.7147467702922115e-01 1.8715242960694756e-01 8.2685968140920207e-01  6.6951362592573849e-01 1.8400094129621825e-01 8.2345024561278124e-01  6.6800133596425360e-01 1.8160318709982370e-01 8.2074284611089632e-01  6.6695952019707017e-01 1.7994758304761690e-01 8.1885742927852523e-01  6.6635031441283243e-01 1.7895485706655162e-01 8.1776991932256804e-01  6.6605994187009088e-01 1.7846399582730330e-01 8.1726273721871423e-01  6.6442233185426025e-01 1.7646546900393723e-01 8.1352718872025287e-01  6.5916989349066735e-01 1.7039319099411096e-01 8.0091397582146662e-01  6.5056301359762703e-01 1.6105410714119944e-01 7.7879521466420332e-01  6.3908704150137785e-01 1.4968778165818694e-01 7.4676251753005762e-01  6.2506993767832142e-01 1.3726442427002292e-01 7.0422978047252127e-01  5.9756716852641867e-01 1.1745024017565722e-01 6.1137934107472791e-01  6.0295397020889963e-01 1.1771272458524373e-01 6.3511862673523090e-01  6.0489598456551108e-01 1.1675916227051318e-01 6.4512859999609273e-01  6.0603183457631249e-01 1.1610039469666070e-01 6.5105578360847371e-01  6.0674837242037005e-01 1.1578762120989859e-01 6.5462061868612531e-01  6.0667588720068044e-01 1.1581048367314759e-01 6.5427339720204691e-01  6.0577799685153610e-01 1.1629028953102334e-01 6.4968231392398379e-01  6.0495660766915405e-01 1.1776911458107978e-01 6.4397066247401469e-01  5.6552145822692490e-01 1.1067133105724901e-01 4.7848431100073319e-01  5.5135140524160653e-01 1.0980571467551843e-01 4.1818377814064039e-01  5.3982628538810862e-01 1.1145440328542557e-01 3.6763560742365164e-01  5.3050868416631625e-01 1.1556465038771618e-01 3.2516869170493584e-01  5.2320699115947300e-01 1.2216933629966810e-01 2.8997572096519403e-01  5.1780192334247921e-01 1.3132983214797775e-01 2.6141321684294244e-01  5.1423115788186746e-01 1.4325995606818376e-01 2.3889674899279917e-01  5.1249939181568172e-01 1.5838479404324490e-01 2.2192731078222475e-01  5.1275153580008825e-01 1.7764024331120953e-01 2.1019882265224166e-01  5.2131419120197187e-01 2.3351488701068474e-01 2.0653416125976520e-01  5.2752136484432532e-01 2.5616090788569268e-01 2.1557827567128354e-01  5.3455498843964189e-01 2.7554535137840097e-01 2.3011429279877030e-01  5.4230274479217855e-01 2.9169956941588188e-01 2.4987422171915688e-01  5.5061809461732669e-01 3.0466693694517727e-01 2.7439386124004667e-01  5.5935673892969406e-01 3.1457504209504850e-01 3.0307280206543147e-01  5.6839336192639789e-01 3.2192022382652924e-01 3.3499566494273025e-01  5.7762093733813458e-01 3.2748524186627115e-01 3.6897822460873125e-01  5.8693388312649863e-01 3.3223623256844409e-01 4.0359212287248275e-01  5.9618232908347213e-01 3.3715034173312852e-01 4.3714626856628797e-01  6.0513574810384685e-01 3.4303894354554254e-01 4.6776502021062044e-01  6.1334527123546601e-01 3.5018229291857711e-01 4.9327900138267222e-01  6.2584058319794389e-01 3.6759626662601663e-01 5.2280182791932361e-01  6.3514578996172943e-01 3.8646587698958867e-01 5.3604226190400250e-01  6.4631955942706598e-01 4.1420448860236891e-01 5.4365239070666804e-01  6.5965949182761119e-01 4.5444528569096287e-01 5.4020512116552488e-01  6.9090955643398189e-01 5.6477628101493837e-01 4.9617304324294076e-01  6.9529623419167308e-01 5.7847391827094274e-01 4.9026794994456313e-01  6.9722200224625686e-01 5.8385534471026967e-01 4.8816517616986971e-01  6.9726193062600894e-01 5.8396747965026907e-01 4.8811732330911944e-01  6.9586497405183101e-01 5.8065725907180665e-01 4.8894157900294238e-01  6.9429635125747335e-01 5.7862041415379817e-01 4.8758174233874829e-01  6.9372246483148103e-01 5.8332910792839199e-01 4.7985130718170055e-01  6.9666844200475997e-01 6.1973302547670506e-01 4.3817486256609550e-01  6.9858057680258634e-01 6.3948036522740681e-01 4.1559772572581333e-01  7.0028909178523691e-01 6.5583275658711682e-01 3.9685731684768599e-01  7.0145749183061856e-01 6.6685218821299774e-01 3.8408993401685654e-01  7.0182766643007999e-01 6.7051921064949971e-01 3.7976334816654406e-01  7.0146809794687426e-01 6.6758820198488522e-01 3.8306339171822373e-01  7.0039181413055507e-01 6.5925628398018132e-01 3.9225243800185550e-01  6.9817984961481572e-01 6.4548147271443046e-01 4.0618666999304909e-01  6.8901722947084842e-01 6.2960905728618466e-01 4.0581893301027810e-01  6.8595352785596164e-01 6.3968796230957536e-01 3.8443073291361718e-01  6.8296941917678167e-01 6.4910470767551021e-01 3.6403897031772747e-01  6.7999173436040472e-01 6.5625713803689423e-01 3.4669210475850476e-01  6.7734728967125302e-01 6.6070634479952217e-01 3.3382961966396080e-01  6.7369558097507876e-01 6.6042490668698572e-01 3.2452747484506439e-01  6.6999819270783789e-01 6.5537930689082935e-01 3.2116118714870284e-01  6.6494044204