<?xml version="1.0"?>
<VTKFile type="UnstructuredGrid"  version="0.1"  >
<UnstructuredGrid>
<Piece  NumberOfPoints="7288" NumberOfCells="14083">
<Points>
<DataArray  type="Float64"  NumberOfComponents="3"  format="ascii">239.8 188 0  250.2 180 0  258.2 172.4 0  257 169.4 0  259.9 157.4 0  258.7 150.3 0  261 143.5 0  251.7 144.4 0  250 138.7 0  247 138.1 0  245.2 130.8 0  247.3 126.4 0  242.7 118.6 0  231.2 107.7 0  226 102.4 0  226.5 93.90000000000001 0  224.5 91.19999999999999 0  224.5 84.09999999999999 0  234.5 73.80000000000001 0  228.4 68.90000000000001 0  230 70 0  233.4 68 0  222.7 61.5 0  220.6 45.5 0  223.4 49.40000000000001 0  224 47 0  221.8 43.09999999999999 0  221 38.40000000000001 0  219.5 38.5 0  219.4 41.69999999999999 0  217.1 36.90000000000001 0  209.7 36 0  209.5 31.69999999999999 0  205.1 29.90000000000001 0  201.5 30.40000000000001 0  199.2 38.69999999999999 0  201.8 41.40000000000001 0  194.8 53.80000000000001 0  196.1 57.69999999999999 0  193 59 0  191.4 66.09999999999999 0  193.5 66.5 0  194.1 64.40000000000001 0  195.6 64.69999999999999 0  195.4 72.40000000000001 0  199.5 77.30000000000001 0  197.7 86.90000000000001 0  200.6 87.5 0  201.5 91 0  198 94.80000000000001 0  198.6 100 0  197.3 105.4 0  198 109.5 0  197 112.7 0  198.3 116.1 0  201.3 122 0  207.2 121 0  208.1 126.7 0  205.6 127.9 0  209.1 134.9 0  210.9 144.4 0  210.1 147.9 0  213 148.4 0  215.4 149.3 0  215.1 152.8 0  219.9 159.7 0  220.3 163.2 0  218.7 164.9 0  219.9 166.7 0  221.9 169.7 0  220 170.3 0  224.9 174.7 0  229.8 177.4 0  229.7 181 0  228 172.9 0  239 178 0  240.4 180 0  239 181.5 0  241.2 185.9 0  242.95 187.99 0  240.5875 187.9975 0  241.375 187.995 0  242.1625 187.9925 0  243.6090909090879 187.2636363636397 0  244.2681818181765 186.5372727272785 0  244.9272727272692 185.810909090913 0  245.5863636363531 185.0845454545571 0  246.245454545445 184.3581818181923 0  246.9045454545351 183.6318181818295 0  247.5636363636303 182.9054545454612 0  248.2227272727197 182.1790909090992 0  248.8818181818179 181.4527272727275 0  249.5409090909066 180.7263636363664 0  250.8666666666961 179.3666666666387 0  251.5333333334033 178.7333333332668 0  252.2000000000994 178.0999999999055 0  252.8666666668011 177.466666666539 0  253.5333333335083 176.8333333331671 0  254.2000000002044 176.1999999998058 0  254.8666666669005 175.5666666664445 0  255.5333333336077 174.9333333330727 0  256.2000000002685 174.2999999997449 0  256.8666666668457 173.6666666664966 0  257.5333333334283 173.033333333243 0  257.9000000000077 171.6500000000191 0  257.6000000000015 170.9000000000038 0  257.2999999999954 170.1499999999885 0  257.2230769230778 168.4769230769195 0  257.4461538461543 167.5538461538442 0  257.6692307692309 166.6307692307688 0  257.8923076923074 165.7076923076935 0  258.115384615384 164.7846153846181 0  258.3384615384605 163.8615384615427 0  258.5615384615395 162.9384615384572 0  258.784615384616 162.0153846153819 0  259.0076923076926 161.0923076923065 0  259.2307692307691 160.1692307692311 0  259.4538461538457 159.2461538461558 0  259.6769230769222 158.3230769230804 0  259.750000000001 156.512500000006 0  259.6000000000014 155.6250000000082 0  259.4500000000029 154.7375000000176 0  259.3000000000018 153.8500000000108 0  259.1500000000007 152.962500000004 0  259.0000000000004 152.0750000000026 0  258.849999999999 151.187499999994 0  258.9875000000052 149.4499999999846 0  259.275000000002 148.5999999999941 0  259.5624999999954 147.7500000000135 0  259.849999999995 146.900000000015 0  260.1374999999945 146.0500000000164 0  260.4249999999913 145.2000000000259 0  260.7124999999948 144.3500000000154 0  260.0700000000398 143.5899999999961 0  259.1400000000573 143.6799999999944 0  258.2100000000351 143.7699999999966 0  257.2800000000262 143.8599999999975 0  256.350000000011 143.9499999999989 0  255.4199999999881 144.0400000000011 0  254.4899999999726 144.1300000000026 0  253.5599999999944 144.2200000000005 0  252.6300000000009 144.3099999999999 0  251.4166666666658 143.4499999999971 0  251.1333333333388 142.5000000000182 0  250.8500000000015 141.5500000000051 0  250.5666666666612 140.5999999999818 0  250.2833333333342 139.6500000000029 0  249.2500000000005 138.5500000000001 0  248.5000000000011 138.4000000000002 0  247.7499999999995 138.2499999999999 0  246.7750000000005 137.1875000000023 0  246.5500000000021 136.2750000000085 0  246.3250000000036 135.3625000000147 0  246.1000000000042 134.450000000017 0  245.8750000000022 133.5375000000088 0  245.650000000003 132.6250000000124 0  245.4250000000046 131.7125000000187 0  245.619999999996 129.9200000000084 0  246.0399999999992 129.0400000000017 0  246.4599999999987 128.1600000000028 0  246.8800000000001 127.2799999999997 0  246.8399999999988 125.6199999999979 0  246.3799999999984 124.8399999999973 0  245.9199999999991 124.0599999999985 0  245.4600000000036 123.2800000000062 0  245.0000000000049 122.5000000000082 0  244.5400000000036 121.7200000000062 0  244.0800000000033 120.9400000000056 0  243.6200000000016 120.1600000000027 0  243.1600000000012 119.3800000000021 0  241.9812499999996 117.9187499999997 0  241.2625000000007 117.2375000000007 0  240.5437500000017 116.5562500000017 0  239.8250000000041 115.875000000004 0  239.1062500000066 115.1937500000063 0  238.3875000000076 114.5125000000072 0  237.6687500000087 113.8312500000082 0  236.9500000000083 113.1500000000079 0  236.231250000008 112.4687500000076 0  235.512500000009 111.7875000000085 0  234.7937500000045 111.1062500000043 0  234.0750000000042 110.4250000000039 0  233.3562500000066 109.7437500000062 0  232.6375000000021 109.062500000002 0  231.9187500000031 108.381250000003 0  230.5500000000004 107.0375000000004 0  229.9000000000021 106.3750000000021 0  229.2500000000038 105.7125000000039 0  228.6000000000041 105.0500000000042 0  227.9500000000018 104.3875000000018 0  227.2999999999952 103.7249999999951 0  226.6500000000024 103.0625000000024 0  226.0555555555555 101.4555555555556 0  226.1111111111111 100.5111111111111 0  226.1666666666667 99.56666666666668 0  226.2222222222222 98.62222222222223 0  226.2777777777778 97.67777777777778 0  226.3333333333333 96.73333333333335 0  226.3888888888889 95.78888888888889 0  226.4444444444445 94.84444444444446 0  226 93.22499999999999 0  225.5000000000026 92.55000000000358 0  225.0000000000026 91.87500000000358 0  224.5 90.31250000000068 0  224.5 89.4250000000097 0  224.5 88.53750000001317 0  224.5 87.65000000001388 0  224.5 86.76250000001457 0  224.5 85.87500000001248 0  224.5 84.9874999999993 0  225.1666666666659 83.41333333333409 0  225.8333333333319 82.72666666666818 0  226.4999999999978 82.04000000000228 0  227.1666666666649 81.35333333333514 0  227.8333333333301 80.66666666667 0  228.4999999999942 79.980000000006 0  229.1666666666601 79.2933333333401 0  229.8333333333316 78.60666666666847 0  230.4999999999975 77.92000000000257 0  231.1666666666644 77.23333333333572 0  231.8333333333295 76.54666666667057 0  232.4999999999972 75.86000000000287 0  233.1666666666681 75.17333333333181 0  233.8333333333368 74.48666666666306 0  233.7499999999995 73.16666666666629 0  233.0000000000018 72.53333333333488 0  232.2500000000014 71.90000000000116 0  231.5000000000009 71.26666666666743 0  230.7500000000005 70.63333333333372 0  229.233333333333 68.75000000000006 0  230.0666666666665 68.60000000000004 0  230.8999999999995 68.45000000000009 0  231.7333333333325 68.30000000000015 0  232.566666666667 68.14999999999995 0  232.5499999999897 68.50000000000607 0  231.7 69 0  230.8500000000103 69.49999999999393 0  227.8300000000008 68.16000000000106 0  227.2600000000064 67.42000000000837 0  226.6900000000077 66.68000000001001 0  226.1200000000024 65.94000000000314 0  225.5500000000108 65.20000000001409 0  224.9800000000098 64.46000000001268 0  224.4100000000007 63.72000000000098 0  223.8399999999971 62.97999999999621 0  223.2699999999993 62.23999999999915 0  222.753846153846 60.56923076923239 0  222.8076923076921 59.63846153846478 0  222.8615384615381 58.70769230769827 0  222.9153846153842 57.77692307693071 0  222.9692307692302 56.84615384616315 0  223.0230769230761 55.91538461539836 0  223.0769230769224 54.98461538462665 0  223.1307692307688 54.05384615385345 0  223.184615384615 53.12307692308312 0  223.2384615384611 52.19230769231556 0  223.2923076923071 51.26153846154906 0  223.3461538461533 50.33076923077847 0  222.8400000000024 48.62000000000327 0  222.2800000000047 47.84000000000661 0  221.7200000000005 47.06000000000071 0  221.1600000000003 46.28000000000039 0  221.4500000000116 45.87500000000512 0  222.3 46.25 0  223.1499999999884 46.62499999999488 0  223.5600000000055 46.22000000000981 0  223.1199999999987 45.43999999999767 0  222.6800000000061 44.66000000001075 0  222.2399999999969 43.8799999999944 0  221.6400000000004 42.16000000000253 0  221.4800000000009 41.22000000000548 0  221.3200000000014 40.28000000000801 0  221.1600000000009 39.34000000000556 0  220.25 38.45 0  219.4749999999999 39.30000000000165 0  219.45 40.09999999999999 0  219.425 40.90000000000112 0  219.0166666666641 40.89999999999463 0  218.6333333333375 40.10000000000875 0  218.2500000000016 39.30000000000339 0  217.8666666666635 38.49999999999351 0  217.483333333337 37.70000000000762 0  216.1750000000165 36.78750000000201 0  215.2500000000275 36.67500000000335 0  214.3250000000385 36.56250000000469 0  213.4000000000277 36.45000000000337 0  212.4750000000059 36.33750000000072 0  211.5499999999838 36.22499999999803 0  210.6249999999835 36.11249999999799 0  209.6600000000001 35.14000000000318 0  209.6200000000001 34.28000000000268 0  209.5800000000001 33.42000000000284 0  209.5399999999998 32.55999999999681 0  208.6200000000117 31.34000000000476 0  207.7400000000138 30.98000000000564 0  206.8600000000162 30.62000000000662 0  205.9800000000174 30.26000000000711 0  204.2000000000054 30.02499999999925 0  203.2999999999946 30.15000000000076 0  202.3999999999945 30.27500000000076 0  201.2444444444438 31.32222222222468 0  200.9888888888895 32.24444444
[...]
<PointData  Vectors="f_12"> 
<DataArray  type="Float64"  Name="f_12"  NumberOfComponents="3" format="ascii">5.1595792539580276e-01 8.9252923888449354e-02 2.8083535115202862e-01  5.0103341305894611e-01 1.9923938320740206e-01 1.4803567510789717e-01  5.3473830416419221e-01 3.8346404602334844e-01 1.4050892592521688e-01  5.6539996341871801e-01 4.6533038935557175e-01 1.8227377993368685e-01  7.0562204850163357e-01 6.3709923872127383e-01 4.3389946491195475e-01  7.1780484357759633e-01 5.2338298374029213e-01 6.1441215948324635e-01  7.2916806874989148e-01 5.1513410730970299e-01 6.4869108759068794e-01  6.2501614531917071e-01 3.9756600888075971e-01 4.7937694653569157e-01  5.5965014660251511e-01 4.1827910417489045e-01 2.0861056019373658e-01  5.5046497656348248e-01 4.2382901940611628e-01 1.6771798361393706e-01  5.4946012681233003e-01 4.7208468870724968e-01 1.2011151760818152e-01  5.4933335442787001e-01 4.8632081989976650e-01 1.0711815596756349e-01  5.6844598392487522e-01 5.5338537709678515e-01 1.1198148275537215e-01  5.2460602263397160e-01 3.8287919053896979e-01 1.0309619964040488e-01  5.0459920115793733e-01 1.9480115908453899e-01 1.6457960231894289e-01  5.4350951780885315e-01 1.0451669268648357e-01 3.9218048026404723e-01  5.9110314371751516e-01 1.2954237777160735e-01 5.7644785255746367e-01  7.4121300817785141e-01 3.8028472551432246e-01 8.1860298192359982e-01  7.7490945534848765e-01 5.3095325955265915e-01 6.9832995750629689e-01  6.9867411841662475e-01 2.9263067533785392e-01 8.1301317679177754e-01  7.2705454896253174e-01 3.6233111146090863e-01 8.1358310925821287e-01  7.3026195992500520e-01 3.6346716937254725e-01 8.2327780244004678e-01  5.6549401397296384e-01 9.3309286344823911e-02 4.9617113550327019e-01  5.9691973073322224e-01 1.0111952370214400e-01 6.1767897709367781e-01  5.8796940943074483e-01 9.5683495665675578e-02 5.8490258456610533e-01  6.0056935146955237e-01 1.0347411139340414e-01 6.3087761849944823e-01  5.9998656290747432e-01 1.0311992188551634e-01 6.2873437825911282e-01  6.0270508742343276e-01 1.0501893392142587e-01 6.3833916330396001e-01  6.0268644801687687e-01 1.0500617890068836e-01 6.3827281484453868e-01  5.9979199924307935e-01 1.0302184687397103e-01 6.2796894102074663e-01  5.9800984349823560e-01 1.0185777016907739e-01 6.2148634241081324e-01  5.9680198373634252e-01 1.0109229126614669e-01 6.1703540579819205e-01  5.9983873025196066e-01 1.0309279968209920e-01 6.2799939052790010e-01  6.0051551984860685e-01 1.0354636730433804e-01 6.3042408859016552e-01  6.0032200002801883e-01 1.0341323875668451e-01 6.2973363459083864e-01  5.9396432995003490e-01 9.9298608393960014e-02 6.0662086608931431e-01  5.8623738942877646e-01 9.4959576754067146e-02 5.7730597197349864e-01  5.4821527694693006e-01 8.0183830452642255e-02 4.2309775501443342e-01  5.4038960476600995e-01 7.9481091407073171e-02 3.8943073523046018e-01  5.3628260416783669e-01 7.9180009510474020e-02 3.7182802866467046e-01  5.3422220819028832e-01 8.1503391050807741e-02 3.6368032582188409e-01  5.3441125733423556e-01 8.1697622490470023e-02 3.6441061341005809e-01  5.3447537981028836e-01 7.9905596043214719e-02 3.6418427634220085e-01  5.3437224687401075e-01 8.0632954849546509e-02 3.6385711500121731e-01  5.4309054787231603e-01 8.8596307218561848e-02 4.0088017918031499e-01  6.2618040533475949e-01 1.7076971169095448e-01 6.8358554711783748e-01  7.7341477451639318e-01 4.9861690346798387e-01 7.3690374034070438e-01  7.6850091399758502e-01 4.7296664265322819e-01 7.6107643966072613e-01  7.3525467321220450e-01 3.5187213119894784e-01 8.3796448967983861e-01  6.9515563416217296e-01 2.4284516912814236e-01 8.5165470107563102e-01  6.3565670160630872e-01 1.5065486520206151e-01 7.3733526223820489e-01  5.7950116546576813e-01 9.8485137935616349e-02 5.5244957770322212e-01  5.4891985076075367e-01 8.5986822251446673e-02 4.2582293511421332e-01  5.3388292244182523e-01 8.2252157699086989e-02 3.6130689691128376e-01  5.2114355857319505e-01 8.4700650741881101e-02 3.0332799581127201e-01  5.0392334834497921e-01 9.7400319574785718e-02 2.2203785966107137e-01  4.9839067581457219e-01 1.7299648975226437e-01 1.5328525427474138e-01  5.0405204479306842e-01 2.9148621505091327e-01 9.5956475714625941e-02  5.0256236828786260e-01 2.9426859181575121e-01 8.8950302377331300e-02  5.4383746860430437e-01 4.5145866195214401e-01 1.1584670096907547e-01  6.4094980101404564e-01 6.6626914554593797e-01 2.2294776526932900e-01  6.5553079354396315e-01 6.8176855328130914e-01 2.4612469619349897e-01  6.6975267104953817e-01 6.7252297153029195e-01 2.9497274470654838e-01  7.0459078376480500e-01 6.3500363947702265e-01 4.3026142312146248e-01  7.3452217706214096e-01 6.0327858619847485e-01 5.3919908870031341e-01  7.4982521245970535e-01 5.8588602887145846e-01 5.9060574301273205e-01  7.4666027936317247e-01 6.5179065446901430e-01 4.9170880714087967e-01  7.4413231219674791e-01 6.8344376098715864e-01 4.4127458277810450e-01  7.4000754465999763e-01 6.9529111989614767e-01 4.1681002323354910e-01  7.2933129573866551e-01 7.0868071004371769e-01 3.7822795934735914e-01  7.3319208134178515e-01 7.1391760667992832e-01 3.7750950436147895e-01  7.0486065562694922e-01 7.0468104113703789e-01 3.3647892778286720e-01  6.0370068587537917e-01 5.9245207937511024e-01 1.9151346976408068e-01  5.8509194282197852e-01 5.6941963076813729e-01 1.5416573327248323e-01  6.8122148220325496e-01 6.6544306758342886e-01 3.3173527883261589e-01  5.5845327129239852e-01 4.0075975130881353e-01 2.1529667783464324e-01  5.2094108607541434e-01 2.1817786556488145e-01 2.1343151760763832e-01  5.1131639374235072e-01 1.5795637910011037e-01 2.1696061683337392e-01  5.1295586185230035e-01 9.9780866358203504e-02 2.6132225948873100e-01  5.1417001488446457e-01 9.3096573789105519e-02 2.7063145571425146e-01  5.1575276855842089e-01 8.9758364692087006e-02 2.7962477069141550e-01  5.1527291902895300e-01 9.0834214607530439e-02 2.7685602351367355e-01  5.1468171264517704e-01 9.2039328624160838e-02 2.7351962612464098e-01  5.1307697572617783e-01 9.5846882551487170e-02 2.6420128134549375e-01  5.1126627720964724e-01 1.0082088010966558e-01 2.5334503772027733e-01  5.0915110104660322e-01 1.0734145767154549e-01 2.4030793907967057e-01  5.0699466828892281e-01 1.1515013263835443e-01 2.2639163128868803e-01  5.0497371096650967e-01 1.2415299250321878e-01 2.1238634749873625e-01  5.0321576372132104e-01 1.3415569215206180e-01 1.9890747496619662e-01  5.0183676380433373e-01 1.4528429430196604e-01 1.8629220251344297e-01  5.0088271748783120e-01 1.5734225808453617e-01 1.7479197512632402e-01  5.0038544787808104e-01 1.7017345643660406e-01 1.6456744298449144e-01  5.0043563971594252e-01 1.8410578784753517e-01 1.5569321581547244e-01  5.0201747380749662e-01 2.1391306124030576e-01 1.4202535645687103e-01  5.0340720618716472e-01 2.2874034111865388e-01 1.3730495939009624e-01  5.0529079002192534e-01 2.4431173377705101e-01 1.3377452057129771e-01  5.0765297772328388e-01 2.6064195978293286e-01 1.3132932704892900e-01  5.1045751243393078e-01 2.7760177932875091e-01 1.2988078654817950e-01  5.1365297015352585e-01 2.9500462903372637e-01 1.2934126522568687e-01  5.1725467923243795e-01 3.1282820716304965e-01 1.2975351859645681e-01  5.2115983757521667e-01 3.3063249312636667e-01 1.3104092772776568e-01  5.2520929840985964e-01 3.4777885455946289e-01 1.3308674703791254e-01  5.2919233550447120e-01 3.6349648994885125e-01 1.3573070330909631e-01  5.3268328428002132e-01 3.7637269173505655e-01 1.3855475887424076e-01  5.3736157205194179e-01 3.9116979373929728e-01 1.4387381870224300e-01  5.4321038430870361e-01 4.0767801139406823e-01 1.5165213397729940e-01  5.5205184183216693e-01 4.3145496017340446e-01 1.6373196757729372e-01  5.8231694903837294e-01 5.0524928780347578e-01 2.0594127511265981e-01  5.9709141685601308e-01 5.3676922540869587e-01 2.2691665519482751e-01  6.1108137730747225e-01 5.6343303010344570e-01 2.4709004960451553e-01  6.2445936992020690e-01 5.8595624408725511e-01 2.6677838894375761e-01  6.3718198665111936e-01 6.0457075766811907e-01 2.8606616289886438e-01  6.4916643087625625e-01 6.1945046652318247e-01 3.0503857707026794e-01  6.6032425856612376e-01 6.3077276670561222e-01 3.2379351010872048e-01  6.7059507096960347e-01 6.3876866808804844e-01 3.4247868407303411e-01  6.7988830671644462e-01 6.4363266586935608e-01 3.6113592293949903e-01  6.8816338593030335e-01 6.4548649111532064e-01 3.8004693565527126e-01  6.9533935673572456e-01 6.4474251409448324e-01 3.9891187085787255e-01  7.0130038299876540e-01 6.4167023728495098e-01 4.1747549490602481e-01  7.0892508573262403e-01 6.2978089170482987e-01 4.5157828528072763e-01  7.1208818702168675e-01 6.1909052678465992e-01 4.7346876759140288e-01  7.1470456258393900e-01 6.0592357697593202e-01 4.9741110299950769e-01  7.1655328462753343e-01 5.9071961871365630e-01 5.2228124818409194e-01  7.1763381192336462e-01 5.7421194757163496e-01 5.4701728323624133e-01  7.1806592339896314e-01 5.5721926451363202e-01 5.7070794740348207e-01  7.1800335364937418e-01 5.4020398253136237e-01 5.9302051058635530e-01  7.1879390707856516e-01 5.1300498778747461e-01 6.2990914837752143e-01  7.1997807925635282e-01 5.0742992029708478e-01 6.3950631410939662e-01  7.2169324549467784e-01 5.0582835168370022e-01 6.4515806769020390e-01  7.2359277082882534e-01 5.0648897786111324e-01 6.4827296429626968e-01  7.2556862459063942e-01 5.0874240515767211e-01 6.4948878806598254e-01  7.2735612283240469e-01 5.1160406687035531e-01 6.4950427056755855e-01  7.2867229347925422e-01 5.1410178037849119e-01 6.4899881921676306e-01  7.2841090479378090e-01 5.1340366343232136e-01 6.4932129079889700e-01  7.2577719741933133e-01 5.0737291045288357e-01 6.5138294359935789e-01  7.2103662869237350e-01 4.9680402941253493e-01 6.5425084287541080e-01  7.1412874189171660e-01 4.8230450600864039e-01 6.5629604435984135e-01  7.0506525802810760e-01 4.6501826628434728e-01 6.5509804138280781e-01  6.9402841482670652e-01 4.4669356800374671e-01 6.4785847200300162e-01  6.8120756399508275e-01 4.2928544263356211e-01 6.3166554494883320e-01  6.6660949240915657e-01 4.1449008721243358e-01 6.0363790104243575e-01  6.4946024914858114e-01 4.0357048822213276e-01 5.5902133159230505e-01  6.0182174743583172e-01 4.0178866846765621e-01 3.8886830555312885e-01  5.8754142126053710e-01 4.0750883579091324e-01 3.2841881051894872e-01  5.7663652283958000e-01 4.1231797561420558e-01 2.8118158136785310e-01  5.6839279633640916e-01 4.1560915085826178e-01 2.4558746619246491e-01  5.6254493061889854e-01 4.1747763402078886e-01 2.2076272871277344e-01  5.5845845830357543e-01 4.1870184842243885e-01 2.0354208261238060e-01  5.5632923553172986e-01 4.1963655272346373e-01 1.9434368078305064e-01  5.5377168148386968e-01 4.2115501027817492e-01 1.8298008075246439e-01  5.4665146591652847e-01 4.2715136759691646e-01 1.5002697269187906e-01  5.4470460678353172e-01 4.3034003281834871e-01 1.3974165521688969e-01  5.4391373514276631e-01 4.3447476955901415e-01 1.3306973610082554e-01  5.4403756038349005e-01 4.3987334010635065e-01 1.2874604020363858e-01  5.4489152891900050e-01 4.4656459185360803e-01 1.2599816860836510e-01  5.4626726111857826e-01 4.5435837996488865e-01 1.2417503811000247e-01  5.4792153638727870e-01 4.6294746629181366e-01 1.2262073003485906e-01  5.4971013613447028e-01 4.7773578643734105e-01 1.1603206624984021e-01  5.4945662664869421e-01 4.8065676849905359e-01 1.1255716609781721e-01  5.4919589914301037e-01 4.8274860081346782e-01 1.0978829544707613e-01  5.4913622424239183e-01 4.8464821547255743e-01 1.0790134133498175e-01  5.5018061514784689e-01 4.8951117829684293e-01 1.0726838891078068e-01  5.5195602404202315e-01 4.9570678272904500e-01 1.0798253247117494e-01  5.5425132141794420e-01 5.0355904977507404e-01 1.0898071274561988e-01  5.5678224531069054e-01 5.1220164538596935e-01 1.1000211110597521e-01  5.5940540257560067e-01 5.2111698207657053e-01 1.1099080428855876e-01  5.6189575590864937e-01 5.2966781795023654e-01 1.1174203430355813e-01  5.6411031205201034e-01 5.3741775445485140e-01 1.1217694058424299e-01  5.6601238974760948e-01 5.4418888216805095e-01 1.1236491291498914e-01  5.6747367109992242e-01 5.4959427320229459e-01 1.1226413627173711e-01  5.6925000445259000e-01 5.5656158865994720e-01 1.1167809907565958e-01  5.6963720603791501e-01 5.5847921694308444e-01 1.1114121651204376e-01  5.6950338323211291e-01 5.5871046323987050e-01 1.1043554361121097e-01  5.6867844339241314e-01 5.5673909216546635e-01 1.0947583932723196e-01  5.6719152216344970e-01 5.5255226801573720e-01 1.0834510096529443e-01  5.6508567866003467e-01 5.4615879651803012e-01 1.0712936866052399e-01  5.6237225657117451e-01 5.3750448167887421e-01 1.0584720177604784e-01  5.5912989865872664e-01 5.2670475769843961e-01 1.0456970928550344e-01  5.5547841227783412e-01 5.1400021341770030e-01 1.0339598735253167e-01  5.5145563118875784e-01 4.9941173537253625e-01 1.0234078333270116e-01  5.4715748427820876e-01 4.8314338162244053e-01 1.0147258434562600e-01  5.4270703916589957e-01 4.6548277185475140e-01 1.0089543224088914e-01  5.3811538064021880e-01 4.4638466852526326e-01 1.0062400831093843e-01  5.3356559115415847e-01 4.2630184219370409e-01 1.0086455345424281e-01  5.2903641485298347e-01 4.0510096457363287e-01 1.0163125470220227e-01  5.2065221251396820e-01 3.6142331107681391e-01 1.0524318410538386e-01  5.1702305372634494e-01 3.3981220777470106e-01 1.0827927836040456e-01  5.1372699194129789e-01 3.1792622201383774e-01 1.1235905535868941e-01  5.1082595406059039e-01 2.9564169455189881e-01 1.1780298611241036e-01  5.0835833445860334e-01 2.7293980033137338e-01 1.2480534293579817e-01  5.0639545386082885e-01 2.4952725495734229e-01 1.3387099513706935e-01  5.0506414067431515e-01 2.2460427857848286e-01 1.4605172663499338e-01  5.0568399258720176e-01 1.6803340155961999e-01 1.8689172092250911e-01  5.0774452797698066e-01 1.5010399917715256e-01 2.0716275764075043e-01  5.1074259401629163e-01 1.3636409354208043e-01 2.2863191399956009e-01  5.1467019411790726e-01 1.2556271108102984e-01 2.5228779004004542e-01  5.1949184338743515e-01 1.1716996531413543e-01 2.7846126497445256e-01  5.2513063298801554e-01 1.1097777800042505e-01 3.0703593288928738e-01  5.3141301877228198e-01 1.0688005712930249e-01 3.3731486661416732e-01  5.3794908513721917e-01 1.0479812621991366e-01 3.6751692614797704e-01  5.4921474212320331e-01 1.0593532032897574e-01 4.1606308543280296e-01  5.5876237662022388e-01 1.0967692270452639e-01 4.5470746040638627e-01  5.7190848551981621e-01 1.1666881396322530e-01 5.0577172478722843e-01  6.1386989318569074e-01 1.4859247301416237e-01 6.5360981029923304e-01  6.3411142758150263e-01 1.6968371729940404e-01 7.1398587902912458e-01  6.5364520494653122e-01 1.9469185604337189e-01 7.6249679033041240e-01  6.7263466583393561e-01 2.2391452448367716e-01 7.9902905988634332e-01  6.9080216061056188e-01 2.5697310565087195e-01 8.2278400640935867e-01  7.0799219174207451e-01 2.9342173151046180e-01 8.3373165548109063e-01  7.2414042991673921e-01 3.3275895767637226e-01 8.3268490407349105e-01  7.5485877404494761e-01 4.2375494085696974e-01 7.9613363886153543e-01  7.6283282331592062e-01 4.5265577142184932e-01 7.7626448412037119e-01  7.6806762446065580e-01 4.7417513038768999e-01 7.5879411896449056e-01  7.7149024991879467e-01 4.9031301602047461e-01 7.4415936043700426e-01  7.7362666109411493e-01 5.0222998240891958e-01 7.3242572665477590e-01  7.7483761174255927e-01 5.1080522921778826e-01 7.2337772568236980e-01  7.7539963099588705e-01 5.1679980206963405e-01 7.1662009974334606e-01  7.7554212091528907e-01 5.2091388682577999e-01 7.1165791559901559e-01  7.7543187035812633e-01 5.2368130632911458e-01 7.0806465230849092e-01  7.7521824511786352e-01 5.2561696211546149e-01 7.0538840779288192e-01  7.7498448340903547e-01 5.2700707890153464e-01 7.0337003387315455e-01  7.7481860751870435e-01 5.2817350820542985e-01 7.0171094866656181e-01  7.7475166528640982e-01 5.2922381076101888e-01 7.0031261390493238e-01  7.7474532997819967e-01 5.2999668495478947e-01 6.9932908256743531e-01  7.7367382260890227e-01 5.2576299038711805e-01 7.0330171145069809e-01  7.6996726364212398e-01 5.1062868504605885e-01 7.1727655934726198e-01  7.6360976478432585e-01 4.8578452755824286e-01 7.3860489614438507e-01  7.5456516072241597e-01 4.5250401485251457e-01 7.6395461789700014e-01  7.4263463400418717e-01 4.1173730804936365e-01 7.8970084953794628e-01  7.1591767537548623e-01 3.3187648095410310e-01 8.2005564921886087e-01  7.2339162902642118e-01 3.4888760470780117e-01 8.2190266327460348e-01  7.2662788896748431e-01 3.5567847159238292e-01 8.2304195128333468e-01  7.2855412574390466e-01 3.5973109763214584e-01 8.2338513376866529e-01  7.2970565348281580e-01 3.6222688946925041e-01 8.2336499114306128e-01  7.2959422699918330e-01 3.6197983473850087e-01 8.2337968705617770e-01  7.2810267563636788e-01 3.5880237613675431e-01 8.2331638963404308e-01  7.2615212864758805e-01 3.5533657098210875e-01 8.2196500838219932e-01  6.7293310812648743e-01 2.3886821226683064e-01 7.8954386151234512e-01  6.5205260583888136e-01 2.0087871445316063e-01 7.5665574221700349e-01  6.3366761212586620e-01 1.7193726347578811e-01 7.1690283814396150e-01  6.1757738091664438e-01 1.4986012852542721e-01 6.7443374360226938e-01  6.0378853792933052e-01 1.3312411529989410e-01 6.3286611448187080e-01  5.9226571347299073e-01 1.2049473087032959e-01 5.9480750129135018e-01  5.8289304751178772e-01 1.1096719184438728e-01 5.6180368131181746e-01  5.7548968865272820e-01 1.0373275875968138e-01 5.3453081508814138e-01  5.6981880988694422e-01 9.8114587953498852e-02 5.1296795873273870e-01  5.6365523111753291e-01 9.0225436270692197e-02 4.8899294911343993e-01  5.6375805498091813e-01 8.8814527233690405e-02 4.8947436966546798e-01  5.6490500172051916e-01 8.8209838830570028e-02 4.9412402322934706e-01  5.6676709097204925e-01 8.8156935361707794e-02 5.0163793552321456e-01  5.6908929113529017e-01 8.8488192450098230e-02 5.1097626160484466e-01  5.7170576650584315e-01 8.9110282353446188e-02 5.2145101916881464e-01  5.7447162208463409e-01 8.9945320328954997e-02 5.3245860002334644e-01  5.7726698737031601e-01 9.0927329077992697e-02 5.4350527830813156e-01  5.7998757254891453e-01 9.1993729135667002e-02 5.5417291622128106e-01  5.8253778481088014e-01 9.3083419960975397e-02 5.6408986263009653e-01  5.8481999807452556e-01 9.4128274543277046e-02 5.7289112545770915e-01  5.8671879704080310e-01 9.5048128836177762e-02 5.8015478458127101e-01  5.8904898580897891e-01 9.6272477285551800e-02 5.8894278674701916e-01  5.9042882820462994e-01 9.7063910964626063e-02 5.9405555263082299e-01  5.9198874711262472e-01 9.8000501538419632e-02 5.9978094186827002e-01  5.9387391737150852e-01 9.9176535777480368e-02 6.0664277421168922e-01  5.9919389000408718e-01 1.0258258641042899e-01 6.2591217665685783e-01  6.0005400116605134e-01 1.0313845489835313e-01 6.2902067577219856e-01  6.0043580477518954e-01 1.0338679308521742e-01 6.3039710190556575e-01  6.0044374402793110e-01 1.0339197760687192e-01 6.3042567900654456e-01  6.0016487540511765e-01 1.0321037014012477e-01 6.2942084649287899e-01  5.9984976499275555e-01 1.0300738231928508e-01 6.2828121160961747e-01  5.9974077183477226e-01 1.0294351563666167e-01 6.2787588512166470e-01  6.0060021554939202e-01 1.0354789388656084e-01 6.3090173640090874e-01  6.0129960915264069e-01 1.0403685354314406e-01 6.3337207819121832e-01  6.0199523005158118e-01 1.0452269239856261e-01 6.3583087413689920e-01  6.0250994945345160e-01 1.0488241566072838e-01 6.3764986085751474e-01  6.0268395688125709e-01 1.0500431190517108e-01 6.3826423379235131e-01  6.0252887922197818e-01 1.0489649778512265e-01 6.3771519382963660e-01  6.0208532364910905e-01 1.0458878426542401e-01 6.3614340982744444e-01  6.0127450308394437e-01 1.0403096387782342e-01 6.3326086794193615e-01  5.9879093476294054e-01 1.0235437071235813e-01 6.2436052345420812e-01  5.9843963675787093e-01 1.0212419905314084e-01 6.2308274776870642e-01  5.9826864712883399e-01 1.0201604749114745e-01 6.2245168579966370e-01  5.9815600239459144e-01 1.0194714100478477e-01 6.2203121291376284e-01  5.9807288301714723e-01 1.0189685898428207e-01 6.2172003647971708e-01  5.9785476419838290e-01 1.0175778693705756e-01 6.2092039542494226e-01  5.9756142402150969e-01 1.0156789111137500e-01 6.1985132637196139e-01  5.9720986860