<?xml version="1.0"?>
<VTKFile type="UnstructuredGrid"  version="0.1"  >
<UnstructuredGrid>
<Piece  NumberOfPoints="7288" NumberOfCells="14083">
<Points>
<DataArray  type="Float64"  NumberOfComponents="3"  format="ascii">239.8 188 0  250.2 180 0  258.2 172.4 0  257 169.4 0  259.9 157.4 0  258.7 150.3 0  261 143.5 0  251.7 144.4 0  250 138.7 0  247 138.1 0  245.2 130.8 0  247.3 126.4 0  242.7 118.6 0  231.2 107.7 0  226 102.4 0  226.5 93.90000000000001 0  224.5 91.19999999999999 0  224.5 84.09999999999999 0  234.5 73.80000000000001 0  228.4 68.90000000000001 0  230 70 0  233.4 68 0  222.7 61.5 0  220.6 45.5 0  223.4 49.40000000000001 0  224 47 0  221.8 43.09999999999999 0  221 38.40000000000001 0  219.5 38.5 0  219.4 41.69999999999999 0  217.1 36.90000000000001 0  209.7 36 0  209.5 31.69999999999999 0  205.1 29.90000000000001 0  201.5 30.40000000000001 0  199.2 38.69999999999999 0  201.8 41.40000000000001 0  194.8 53.80000000000001 0  196.1 57.69999999999999 0  193 59 0  191.4 66.09999999999999 0  193.5 66.5 0  194.1 64.40000000000001 0  195.6 64.69999999999999 0  195.4 72.40000000000001 0  199.5 77.30000000000001 0  197.7 86.90000000000001 0  200.6 87.5 0  201.5 91 0  198 94.80000000000001 0  198.6 100 0  197.3 105.4 0  198 109.5 0  197 112.7 0  198.3 116.1 0  201.3 122 0  207.2 121 0  208.1 126.7 0  205.6 127.9 0  209.1 134.9 0  210.9 144.4 0  210.1 147.9 0  213 148.4 0  215.4 149.3 0  215.1 152.8 0  219.9 159.7 0  220.3 163.2 0  218.7 164.9 0  219.9 166.7 0  221.9 169.7 0  220 170.3 0  224.9 174.7 0  229.8 177.4 0  229.7 181 0  228 172.9 0  239 178 0  240.4 180 0  239 181.5 0  241.2 185.9 0  242.95 187.99 0  240.5875 187.9975 0  241.375 187.995 0  242.1625 187.9925 0  243.6090909090879 187.2636363636397 0  244.2681818181765 186.5372727272785 0  244.9272727272692 185.810909090913 0  245.5863636363531 185.0845454545571 0  246.245454545445 184.3581818181923 0  246.9045454545351 183.6318181818295 0  247.5636363636303 182.9054545454612 0  248.2227272727197 182.1790909090992 0  248.8818181818179 181.4527272727275 0  249.5409090909066 180.7263636363664 0  250.8666666666961 179.3666666666387 0  251.5333333334033 178.7333333332668 0  252.2000000000994 178.0999999999055 0  252.8666666668011 177.466666666539 0  253.5333333335083 176.8333333331671 0  254.2000000002044 176.1999999998058 0  254.8666666669005 175.5666666664445 0  255.5333333336077 174.9333333330727 0  256.2000000002685 174.2999999997449 0  256.8666666668457 173.6666666664966 0  257.5333333334283 173.033333333243 0  257.9000000000077 171.6500000000191 0  257.6000000000015 170.9000000000038 0  257.2999999999954 170.1499999999885 0  257.2230769230778 168.4769230769195 0  257.4461538461543 167.5538461538442 0  257.6692307692309 166.6307692307688 0  257.8923076923074 165.7076923076935 0  258.115384615384 164.7846153846181 0  258.3384615384605 163.8615384615427 0  258.5615384615395 162.9384615384572 0  258.784615384616 162.0153846153819 0  259.0076923076926 161.0923076923065 0  259.2307692307691 160.1692307692311 0  259.4538461538457 159.2461538461558 0  259.6769230769222 158.3230769230804 0  259.750000000001 156.512500000006 0  259.6000000000014 155.6250000000082 0  259.4500000000029 154.7375000000176 0  259.3000000000018 153.8500000000108 0  259.1500000000007 152.962500000004 0  259.0000000000004 152.0750000000026 0  258.849999999999 151.187499999994 0  258.9875000000052 149.4499999999846 0  259.275000000002 148.5999999999941 0  259.5624999999954 147.7500000000135 0  259.849999999995 146.900000000015 0  260.1374999999945 146.0500000000164 0  260.4249999999913 145.2000000000259 0  260.7124999999948 144.3500000000154 0  260.0700000000398 143.5899999999961 0  259.1400000000573 143.6799999999944 0  258.2100000000351 143.7699999999966 0  257.2800000000262 143.8599999999975 0  256.350000000011 143.9499999999989 0  255.4199999999881 144.0400000000011 0  254.4899999999726 144.1300000000026 0  253.5599999999944 144.2200000000005 0  252.6300000000009 144.3099999999999 0  251.4166666666658 143.4499999999971 0  251.1333333333388 142.5000000000182 0  250.8500000000015 141.5500000000051 0  250.5666666666612 140.5999999999818 0  250.2833333333342 139.6500000000029 0  249.2500000000005 138.5500000000001 0  248.5000000000011 138.4000000000002 0  247.7499999999995 138.2499999999999 0  246.7750000000005 137.1875000000023 0  246.5500000000021 136.2750000000085 0  246.3250000000036 135.3625000000147 0  246.1000000000042 134.450000000017 0  245.8750000000022 133.5375000000088 0  245.650000000003 132.6250000000124 0  245.4250000000046 131.7125000000187 0  245.619999999996 129.9200000000084 0  246.0399999999992 129.0400000000017 0  246.4599999999987 128.1600000000028 0  246.8800000000001 127.2799999999997 0  246.8399999999988 125.6199999999979 0  246.3799999999984 124.8399999999973 0  245.9199999999991 124.0599999999985 0  245.4600000000036 123.2800000000062 0  245.0000000000049 122.5000000000082 0  244.5400000000036 121.7200000000062 0  244.0800000000033 120.9400000000056 0  243.6200000000016 120.1600000000027 0  243.1600000000012 119.3800000000021 0  241.9812499999996 117.9187499999997 0  241.2625000000007 117.2375000000007 0  240.5437500000017 116.5562500000017 0  239.8250000000041 115.875000000004 0  239.1062500000066 115.1937500000063 0  238.3875000000076 114.5125000000072 0  237.6687500000087 113.8312500000082 0  236.9500000000083 113.1500000000079 0  236.231250000008 112.4687500000076 0  235.512500000009 111.7875000000085 0  234.7937500000045 111.1062500000043 0  234.0750000000042 110.4250000000039 0  233.3562500000066 109.7437500000062 0  232.6375000000021 109.062500000002 0  231.9187500000031 108.381250000003 0  230.5500000000004 107.0375000000004 0  229.9000000000021 106.3750000000021 0  229.2500000000038 105.7125000000039 0  228.6000000000041 105.0500000000042 0  227.9500000000018 104.3875000000018 0  227.2999999999952 103.7249999999951 0  226.6500000000024 103.0625000000024 0  226.0555555555555 101.4555555555556 0  226.1111111111111 100.5111111111111 0  226.1666666666667 99.56666666666668 0  226.2222222222222 98.62222222222223 0  226.2777777777778 97.67777777777778 0  226.3333333333333 96.73333333333335 0  226.3888888888889 95.78888888888889 0  226.4444444444445 94.84444444444446 0  226 93.22499999999999 0  225.5000000000026 92.55000000000358 0  225.0000000000026 91.87500000000358 0  224.5 90.31250000000068 0  224.5 89.4250000000097 0  224.5 88.53750000001317 0  224.5 87.65000000001388 0  224.5 86.76250000001457 0  224.5 85.87500000001248 0  224.5 84.9874999999993 0  225.1666666666659 83.41333333333409 0  225.8333333333319 82.72666666666818 0  226.4999999999978 82.04000000000228 0  227.1666666666649 81.35333333333514 0  227.8333333333301 80.66666666667 0  228.4999999999942 79.980000000006 0  229.1666666666601 79.2933333333401 0  229.8333333333316 78.60666666666847 0  230.4999999999975 77.92000000000257 0  231.1666666666644 77.23333333333572 0  231.8333333333295 76.54666666667057 0  232.4999999999972 75.86000000000287 0  233.1666666666681 75.17333333333181 0  233.8333333333368 74.48666666666306 0  233.7499999999995 73.16666666666629 0  233.0000000000018 72.53333333333488 0  232.2500000000014 71.90000000000116 0  231.5000000000009 71.26666666666743 0  230.7500000000005 70.63333333333372 0  229.233333333333 68.75000000000006 0  230.0666666666665 68.60000000000004 0  230.8999999999995 68.45000000000009 0  231.7333333333325 68.30000000000015 0  232.566666666667 68.14999999999995 0  232.5499999999897 68.50000000000607 0  231.7 69 0  230.8500000000103 69.49999999999393 0  227.8300000000008 68.16000000000106 0  227.2600000000064 67.42000000000837 0  226.6900000000077 66.68000000001001 0  226.1200000000024 65.94000000000314 0  225.5500000000108 65.20000000001409 0  224.9800000000098 64.46000000001268 0  224.4100000000007 63.72000000000098 0  223.8399999999971 62.97999999999621 0  223.2699999999993 62.23999999999915 0  222.753846153846 60.56923076923239 0  222.8076923076921 59.63846153846478 0  222.8615384615381 58.70769230769827 0  222.9153846153842 57.77692307693071 0  222.9692307692302 56.84615384616315 0  223.0230769230761 55.91538461539836 0  223.0769230769224 54.98461538462665 0  223.1307692307688 54.05384615385345 0  223.184615384615 53.12307692308312 0  223.2384615384611 52.19230769231556 0  223.2923076923071 51.26153846154906 0  223.3461538461533 50.33076923077847 0  222.8400000000024 48.62000000000327 0  222.2800000000047 47.84000000000661 0  221.7200000000005 47.06000000000071 0  221.1600000000003 46.28000000000039 0  221.4500000000116 45.87500000000512 0  222.3 46.25 0  223.1499999999884 46.62499999999488 0  223.5600000000055 46.22000000000981 0  223.1199999999987 45.43999999999767 0  222.6800000000061 44.66000000001075 0  222.2399999999969 43.8799999999944 0  221.6400000000004 42.16000000000253 0  221.4800000000009 41.22000000000548 0  221.3200000000014 40.28000000000801 0  221.1600000000009 39.34000000000556 0  220.25 38.45 0  219.4749999999999 39.30000000000165 0  219.45 40.09999999999999 0  219.425 40.90000000000112 0  219.0166666666641 40.89999999999463 0  218.6333333333375 40.10000000000875 0  218.2500000000016 39.30000000000339 0  217.8666666666635 38.49999999999351 0  217.483333333337 37.70000000000762 0  216.1750000000165 36.78750000000201 0  215.2500000000275 36.67500000000335 0  214.3250000000385 36.56250000000469 0  213.4000000000277 36.45000000000337 0  212.4750000000059 36.33750000000072 0  211.5499999999838 36.22499999999803 0  210.6249999999835 36.11249999999799 0  209.6600000000001 35.14000000000318 0  209.6200000000001 34.28000000000268 0  209.5800000000001 33.42000000000284 0  209.5399999999998 32.55999999999681 0  208.6200000000117 31.34000000000476 0  207.7400000000138 30.98000000000564 0  206.8600000000162 30.62000000000662 0  205.9800000000174 30.26000000000711 0  204.2000000000054 30.02499999999925 0  203.2999999999946 30.15000000000076 0  202.3999999999945 30.27500000000076 0  201.2444444444438 31.32222222222468 0  200.9888888888895 32.24444444
[...]
<PointData  Vectors="f_12"> 
<DataArray  type="Float64"  Name="f_12"  NumberOfComponents="3" format="ascii">6.1456194152727772e-01 1.1475781463209539e-01 6.7828621070452189e-01  6.1443207080431317e-01 1.1461652787708604e-01 6.7787572319208622e-01  6.1360513858061627e-01 1.1382040985027976e-01 6.7523874767481029e-01  6.1204273306527135e-01 1.1244616410877460e-01 6.7017313840028836e-01  5.7873724550324579e-01 9.1434022512986143e-02 5.4907999474411084e-01  5.3391313619230729e-01 8.4682826694805854e-02 3.5841765735100106e-01  5.2443796391204822e-01 8.1247683760505951e-02 3.2007270859606718e-01  5.2567394882274876e-01 2.1824041766016225e-01 2.3187384630618241e-01  5.8334909335073226e-01 4.6300481190684345e-01 2.5471327946251582e-01  6.2412076962498320e-01 5.4002844177172349e-01 3.1454348072408306e-01  7.3396511653829477e-01 7.1442990119291794e-01 3.7622321446308793e-01  7.5055221787482684e-01 7.5751289759776153e-01 3.3720690351038074e-01  7.5859988849142013e-01 7.7044171159853103e-01 3.2763373345496788e-01  7.5526536385226828e-01 6.3905526191789785e-01 5.2267510487198310e-01  6.5885010855676274e-01 5.0283926247688659e-01 4.7178122137501766e-01  5.3351821907448338e-01 3.0568954734945347e-01 1.9927295277536575e-01  5.1903866409662469e-01 2.0654929224047242e-01 2.1443286541282464e-01  5.7365219769210585e-01 1.0785330011048984e-01 5.1207860844850128e-01  6.6691868106162633e-01 1.7441848239197885e-01 8.1774190304701588e-01  6.6571596977604175e-01 1.7272669875632291e-01 8.1524244515567357e-01  6.6662825617473431e-01 1.7402453926940237e-01 8.1708480206115786e-01  6.6792750249939681e-01 1.7592136765692501e-01 8.1958205527670724e-01  6.5394585887848111e-01 1.5694957925228370e-01 7.8940213784137114e-01  6.3116693415357605e-01 1.3059502541417400e-01 7.2960768580733470e-01  6.3621454698865942e-01 1.3592423316533600e-01 7.4400938037527475e-01  6.2986307614378101e-01 1.2924890150836832e-01 7.2582223035178584e-01  6.2966973367240475e-01 1.2905271534717389e-01 7.2524809606491636e-01  6.2846422060492435e-01 1.2783850489852319e-01 7.2168376442424365e-01  6.2846850768029883e-01 1.2784275219705529e-01 7.2169649936056646e-01  6.2920145425556373e-01 1.2857183973565353e-01 7.2387005618426115e-01  6.2840559093730552e-01 1.2773990044037950e-01 7.2152623788675374e-01  6.2874312466891702e-01 1.2801143487987840e-01 7.2255837038041482e-01  6.2853040999593190e-01 1.2776212623906358e-01 7.2194328199833557e-01  6.2855702312147954e-01 1.2777847270530471e-01 7.2202710667541525e-01  6.2862119331582156e-01 1.2784055995045662e-01 7.2221877292557068e-01  6.2947398717400260e-01 1.2872204749333629e-01 7.2473175615296792e-01  6.3094259927742291e-01 1.3025552182799893e-01 7.2901003953335508e-01  6.4235631042368246e-01 1.4273768069542048e-01 7.6068358872954533e-01  6.4652591877545984e-01 1.4765153718085489e-01 7.7142229449109534e-01  6.4894166493123617e-01 1.5055110602253530e-01 7.7750429963104672e-01  6.5511343360879859e-01 1.5828692062725233e-01 7.9225966359442823e-01  6.5486511656343749e-01 1.5796855422579850e-01 7.9168219202229118e-01  6.5130490880908487e-01 1.5347228133880672e-01 7.8325937659954925e-01  6.5246134657379617e-01 1.5492565266914265e-01 7.8601507192439413e-01  6.5555269926449067e-01 1.5881133056577926e-01 7.9331169536285295e-01  6.4869460705895599e-01 1.5016633207692290e-01 7.7711347501078920e-01  6.1076906591487878e-01 1.1343994444853363e-01 6.6584546585552828e-01  5.8983730574948090e-01 1.0483288470141829e-01 5.8389615767865355e-01  5.3184705408499466e-01 9.8351047442206491e-02 3.3878581652302736e-01  5.0119312257863702e-01 1.1693117274796436e-01 1.9945903406633736e-01  5.0308938153122396e-01 2.0167667925724861e-01 1.5308747332757078e-01  5.2699678865479993e-01 3.5621683737756338e-01 1.3245910112486886e-01  5.6242600991199543e-01 4.9321471428320768e-01 1.4603137891300999e-01  5.8712000603179682e-01 5.7416137130264899e-01 1.5493398958127988e-01  6.1229977144404701e-01 6.3390825786934135e-01 1.7331497364360313e-01  6.5135840332965000e-01 7.0035531920789462e-01 2.1000728579531697e-01  6.9500781952063451e-01 7.3285284804870521e-01 2.7139036579631320e-01  7.1288013273597428e-01 7.7920273931080419e-01 2.4118607871961736e-01  7.0958234551163879e-01 7.8380065767992124e-01 2.2805537351831048e-01  6.9590017042903574e-01 7.7199222420523228e-01 2.1822470110586678e-01  6.3615824597092185e-01 6.8351758390954487e-01 1.8743208304526524e-01  6.2161290642941502e-01 6.5761758391534242e-01 1.7626813784665621e-01  6.1321911966465681e-01 6.3065721648383188e-01 1.8011816150032439e-01  5.8155417943563492e-01 5.3048623824491270e-01 1.7651927714112167e-01  5.3780715204440321e-01 3.7988686923513659e-01 1.5417374308662679e-01  5.1300171001490391e-01 1.4241832972787327e-01 2.3129395933684407e-01  5.4024914896247023e-01 9.4823222251797568e-02 3.7800399541291352e-01  5.5293276554538329e-01 8.7774593712969529e-02 4.3903218767214552e-01  5.6275401121249768e-01 8.8201062041617387e-02 4.8186511196755849e-01  5.8052639815844265e-01 9.2532957287413342e-02 5.5596487305612108e-01  5.7753602374818447e-01 9.0715673999330018e-02 5.4490284959450963e-01  6.0068300861127488e-01 1.0340868743415084e-01 6.3190798923492308e-01  6.1253911350055190e-01 1.1287267658646140e-01 6.7179596248111606e-01  6.1367516393059507e-01 1.1386975715966158e-01 6.7547093779605138e-01  6.0295190005978616e-01 1.0532338219545087e-01 6.3948090512298195e-01  6.1368691321594582e-01 1.1390803769588141e-01 6.7550184584481754e-01  6.1432000608262360e-01 1.1451194336399075e-01 6.7751954408795101e-01  6.1447680793773485e-01 1.1466660596262271e-01 6.7801720393226617e-01  6.1455503693928371e-01 1.1474961650050436e-01 6.7826446261000617e-01  6.1456038024411441e-01 1.1475575700734898e-01 6.7828130438923895e-01  6.1456169847538933e-01 1.1475750693734603e-01 6.7828544628138143e-01  6.1456123424847386e-01 1.1475690452919791e-01 6.7828398700020898e-01  6.1456078205706310e-01 1.1475629634220975e-01 6.7828256663472908e-01  6.1455904099026804e-01 1.1475406342669947e-01 6.7827709152851534e-01  6.1455637834203647e-01 1.1475076422538125e-01 6.7826871117141252e-01  6.1455248386024475e-01 1.1474604326468413e-01 6.7825644631439308e-01  6.1454715794783044e-01 1.1473974442224193e-01 6.7823966179666029e-01  6.1454008585671338e-01 1.1473157826465943e-01 6.7821735887645784e-01  6.1453102969587203e-01 1.1472134475718956e-01 6.7818877970810831e-01  6.1451913388393364e-01 1.1470821095676319e-01 6.7815121142024681e-01  6.1450411454612752e-01 1.1469193486131149e-01 6.7810374714933130e-01  6.1448555178213171e-01 1.1467214543478582e-01 6.7804504565405732e-01  6.1446177680747904e-01 1.1464723696382131e-01 6.7796980344178015e-01  6.1440011167126074e-01 1.1458378389949640e-01 6.7777444552754973e-01  6.1436443913248584e-01 1.1454754114456887e-01 6.7766133025447683e-01  6.1432204368779875e-01 1.1450493894642982e-01 6.7752678999316251e-01  6.1427222937140913e-01 1.1445535546662652e-01 6.7736858184952542e-01  6.1421435966911142e-01 1.1439826502734335e-01 6.7718463431804887e-01  6.1414828173315783e-01 1.1433358821898827e-01 6.7697442173651123e-01  6.1407082063596496e-01 1.1425852560163849e-01 6.7672773052669055e-01  6.1398194119399907e-01 1.1417322727911504e-01 6.7644435057917951e-01  6.1388276203830294e-01 1.1407898459139081e-01 6.7612771534951577e-01  6.1377615995552159e-01 1.1397874818223401e-01 6.7578687907513157e-01  6.1367288955757948e-01 1.1388270830871182e-01 6.7545613215775691e-01  6.1349522771884379e-01 1.1372160928819762e-01 6.7488478079806447e-01  6.1323149557863921e-01 1.1348633520711264e-01 6.7403365167835372e-01  6.1279152516185620e-01 1.1309804924864066e-01 6.7260900014770708e-01  6.1094387362618141e-01 1.1150620576359420e-01 6.6657549498183544e-01  6.0977871324871968e-01 1.1053345184095387e-01 6.6272698578402744e-01  6.0841757561778254e-01 1.0942846028830035e-01 6.5818489818408721e-01  6.0680369757761854e-01 1.0815845883187281e-01 6.5273741934433682e-01  6.0489743815360397e-01 1.0670956234552331e-01 6.4622056775741743e-01  6.0266891590484017e-01 1.0508041891894239e-01 6.3849426513817242e-01  6.0009814405286033e-01 1.0328178478637516e-01 6.2944397003875341e-01  5.9717635188419049e-01 1.0133599387670018e-01 6.1898891916441934e-01  5.9391084413469353e-01 9.9282772073665315e-02 6.0709533995627585e-01  5.9029239632555608e-01 9.7158633850212381e-02 5.9366323222509054e-01  5.8642286315279712e-01 9.5052550687935569e-02 5.7902656268683828e-01  5.8241289266481511e-01 9.3064517636792451e-02 5.6355257649198853e-01  5.7470895253189547e-01 8.9936289230180461e-02 5.3281645860369653e-01  5.6961681370183270e-01 8.8323473948434345e-02 5.1189210291510345e-01  5.6392227289527019e-01 8.6844075556252343e-02 4.8811483413314516e-01  5.5788141153417670e-01 8.5653289224859916e-02 4.6251066713044109e-01  5.5172447275139203e-01 8.4842291353602259e-02 4.3607487532947498e-01  5.4565762341047808e-01 8.4437717897213549e-02 4.0976521713323832e-01  5.3976283841746275e-01 8.4417307836043912e-02 3.8402205811482581e-01  5.2960225412167672e-01 8.4532431975161096e-02 3.3991361432515543e-01  5.2689821484442878e-01 8.4351170544797169e-02 3.2842874008634543e-01  5.2533609128626357e-01 8.3910968350169021e-02 3.2204927909900699e-01  5.2449864222978682e-01 8.3360695673881574e-02 3.1885210641571765e-01  5.2419530769806699e-01 8.2697240907260217e-02 3.1801706934892171e-01  5.2421086427477404e-01 8.2024279545396553e-02 3.1855406659921282e-01  5.2435426410059005e-01 8.1474270734453513e-02 3.1955452365057441e-01  5.2425961456584280e-01 8.1652039608282767e-02 3.1902597906239477e-01  5.2362256992734257e-01 8.3137712039005190e-02 3.1527241931326710e-01  5.2251242714219059e-01 8.5993621382029747e-02 3.0859530590768153e-01  5.2105073085629972e-01 9.0496113069684830e-02 2.9939465679418559e-01  5.1943559918449778e-01 9.7085491757550865e-02 2.8829651613727936e-01  5.1796470087378399e-01 1.0633358202330023e-01 2.7622333189580717e-01  5.1703662839336684e-01 1.1921708096698973e-01 2.6416845722219201e-01  5.1715671364049454e-01 1.3753772416597851e-01 2.5285469415575840e-01  5.1917197819429473e-01 1.6548676326829373e-01 2.4246323900068995e-01  5.3737850675544507e-01 2.8620610846161221e-01 2.2828636238045180e-01  5.4805250430224850e-01 3.3743503199395203e-01 2.3002800887543712e-01  5.5883058531376117e-01 3.8217545613726056e-01 2.3464863635982158e-01  5.6908508722645190e-01 4.1937560890072961e-01 2.4140515386701764e-01  5.7788227343214926e-01 4.4764300076966279e-01 2.4889403734550516e-01  5.8689207075426730e-01 4.7104167252990192e-01 2.5957111135585431e-01  5.9448424794583310e-01 4.8692877126893702e-01 2.7051136580557317e-01  6.0588450886416789e-01 5.0855411180371168e-01 2.8744907308084666e-01  6.4844602346249325e-01 5.7786737736608851e-01 3.4916795298002673e-01  6.6617809027856079e-01 6.0312593471878606e-01 3.7156287527676923e-01  6.8115607078256579e-01 6.2393723866677731e-01 3.8652259682922696e-01  6.9421439459038814e-01 6.4270357076277751e-01 3.9497849099978999e-01  7.0567631053094826e-01 6.6047872679787967e-01 3.9752832645330305e-01  7.1580202990302555e-01 6.7780604839218928e-01 3.9499414016281126e-01  7.2491229962559400e-01 6.9517002992920185e-01 3.8805610943345359e-01  7.4100777691778941e-01 7.3099962697517729e-01 3.6332212909783573e-01  7.4519779683870757e-01 7.4184891330230673e-01 3.5348362070738432e-01  7.4794594701753958e-01 7.4958865125871543e-01 3.4573609361978558e-01  7.4969727452617418e-01 7.5484849356598216e-01 3.4013824986146796e-01  7.5111353426970839e-01 7.5926517743739552e-01 3.3524590808613380e-01  7.5189862583258238e-01 7.6165427779329409e-01 3.3257690217490216e-01  7.5274012943229485e-01 7.6407590466577269e-01 3.2991250120423232e-01  7.5359692905928888e-01 7.6629587887721773e-01 3.2756812596624418e-01  7.5443903333962614e-01 7.6811971390446276e-01 3.2581442794307724e-01  7.5527691293146326e-01 7.6950382517587246e-01 3.2473940042986416e-01  7.5611959296920139e-01 7.7042134665391404e-01 3.2440200550725784e-01  7.5696723877869831e-01 7.7085455472324793e-01 3.2483367336472818e-01  7.5781280184893196e-01 7.7083731822164792e-01 3.2597336360345019e-01  7.5951808722273662e-01 7.6949222965605779e-01 3.3034173898902919e-01  7.6060798985660261e-01 7.6788640118469531e-01 3.3431135122814909e-01  7.6179138389135548e-01 7.6564440049773641e-01 3.3940669282083646e-01  7.6304130151951655e-01 7.6270466860332065e-01 3.4568777782586818e-01  7.6431398096194669e-01 7.5903253763462175e-01 3.5315063611559000e-01  7.6555917354422720e-01 7.5455520265062892e-01 3.6184275384722570e-01  7.6671999700876325e-01 7.4917500393855629e-01 3.7184098422351058e-01  7.6772146033570099e-01 7.4278463023687968e-01 3.8321091348822933e-01  7.6846931241359218e-01 7.3528556907649745e-01 3.9597308006298582e-01  7.6885926231629165e-01 7.2648786887889649e-01 4.1026534462362224e-01  7.6876602732292731e-01 7.1625051639106141e-01 4.2610068692519842e-01  7.6804521928894498e-01 7.0445569671676644e-01 4.4339774568555845e-01  7.6653094041015390e-01 6.9083934917576439e-01 4.6221992799549988e-01  7.6401027785636111e-01 6.7544610206025646e-01 4.8200656241765405e-01  7.6031893689187957e-01 6.5813159950783939e-01 5.0246106190174777e-01  7.4917498465431964e-01 6.2003804152087083e-01 5.4007512220856513e-01  7.4179803317406501e-01 6.0083407632510111e-01 5.5419158207559971e-01  7.3310235865041351e-01 5.8197411286086442e-01 5.6373668472086802e-01  7.2290399189139753e-01 5.6404923857915223e-01 5.6677386951375530e-01  7.1122239443434332e-01 5.4776354650294934e-01 5.6172740088272599e-01  6.9769300180874161e-01 5.3310385114272951e-01 5.4683575248284377e-01  6.8134578443327276e-01 5.1924855752659127e-01 5.1929380318468754e-01  6.3487737285994417e-01 4.8468254894575813e-01 4.1515974639113462e-01  6.1599915838244212e-01 4.6790203931397467e-01 3.6839526575093240e-01  5.9911523110635245e-01 4.4916291449335305e-01 3.2662933949624723e-01  5.8368346856416808e-01 4.2750220694712110e-01 2.9000057900046777e-01  5.6968768228319633e-01 4.0299497740155554e-01 2.5914328616634213e-01  5.5733827511674505e-01 3.7649775103026073e-01 2.3462244749962041e-01  5.4690204441491141e-01 3.4955776910172598e-01 2.1659017287458612e-01  5.3870530740563305e-01 3.2445348383324618e-01 2.0485702558897181e-01  5.3014169445817760e-01 2.8993817266595928e-01 1.9800218646910245e-01  5.2599481521127922e-01 2.6682437949397431e-01 1.9889639557057168e-01  5.2218657745325714e-01 2.3965570998330810e-01 2.0357257593166550e-01  5.1799069334867565e-01 1.7480775152873054e-01 2.3204170583454267e-01  5.1932578041162247e-01 1.5264524047402331e-01 2.5234176699014260e-01  5.2271272219731113e-01 1.3612868347856932e-01 2.7717092016000916e-01  5.2806246446986382e-01 1.2386213445107806e-01 3.0746736281559106e-01  5.3541766252143108e-01 1.1524947130193439e-01 3.4405332472966066e-01  5.4491686913662940e-01 1.0979702936139037e-01 3.8799780826903563e-01  5.5685292773191974e-01 1.0726115958547586e-01 4.4068556237653478e-01  5.9138176929157837e-01 1.1200315850779810e-01 5.8422023313685756e-01  6.0502835724065374e-01 1.1750567301585495e-01 6.3682472827546877e-01  6.1685664812065255e-01 1.2414480561734313e-01 6.7946058646709739e-01  6.2717325520097922e-01 1.3147331308383980e-01 7.1390963351487324e-01  6.3602715564217682e-01 1.3895699368056111e-01 7.4120270725636361e-01  6.4346437796070755e-01 1.4612109676456395e-01 7.6239314994924501e-01  6.4956316782542134e-01 1.5261788756120098e-01 7.7851580933994635e-01  6.5444950701236870e-01 1.5824451526871225e-01 7.9057829605050933e-01  6.5829375974531190e-01 1.6294235651743152e-01 7.9952019954048303e-01  6.6124728733825544e-01 1.6672177962339979e-01 8.0605089811471742e-01  6.6346206717094480e-01 1.6965599374664980e-01 8.1075193896015896e-01  6.6505151734598578e-01 1.7181742187861074e-01 8.1401907134539619e-01  6.6611196004175888e-01 1.7328623224491560e-01 8.1614875868146597e-01  6.6671663048441088e-01 1.7413360627080829e-01 8.1734503637075828e-01  6.6687565854293640e-01 1.7435759247925375e-01 8.1765589548483997e-01  6.6681312225009837e-01 1.7426895862374128e-01 8.1752810156111988e-01  6.6673668411280940e-01 1.7416102149426807e-01 8.1736872777204517e-01  6.6664610648705513e-01 1.7403413233728421e-01 8.1717649285028615e-01  6.6657086337172955e-01 1.7393168773829232e-01 8.1700715099363552e-01  6.6649934896324192e-01 1.7384517066476574e-01 8.1680951081547348e-01  6.6702474633551145e-01 1.7460311233200992e-01 8.1784166544929593e-01  6.6741482472053915e-01 1.7517063813207462e-01 8.1859734173583631e-01  6.6768502635139348e-01 1.7556566747950109e-01 8.1911735806198693e-01  6.6784995917255863e-01 1.7580749654695366e-01 8.1943363059464480e-01  6.6783429485895252e-01 1.7578449291349718e-01 8.1940364379572161e-01  6.6761260973773717e-01 1.7545954755695176e-01 8.1897845934437530e-01  6.6724074689414392e-01 1.7491619814899209e-01 8.1826311740703106e-01  6.6487028046446361e-01 1.7153303487552993e-01 8.1351462319272583e-01  6.6414866380430315e-01 1.7052482429412308e-01 8.1201940479744128e-01  6.6338291277004546e-01 1.6946423489728449e-01 8.1041552001011330e-01  6.6252596355114524e-01 1.6828659085988970e-01 8.0860247605599600e-01  6.6155439002780791e-01 1.6696197799687407e-01 8.0652452177564993e-01  6.6045531284086079e-01 1.6547640849826731e-01 8.0414466483089841e-01  6.5921173163432378e-01 1.6381198841387148e-01 8.0141337250124300e-01  6.5779593009081350e-01 1.6193842776796938e-01 7.9825306183457156e-01  6.5613737009436723e-01 1.5977170182173014e-01 7.9448307875606250e-01  6.5166675192066392e-01 1.5405941657634778e-01 7.8400999614230038e-01  6.4983477371723952e-01 1.5177258512506428e-01 7.7958722815181525e-01  6.4815086360961016e-01 1.4970225549151830e-01 7.7544589547295384e-01  6.4656682835914248e-01 1.4778374708983416e-01 7.7148166733013868e-01  6.4505751650999488e-01 1.4598154954736764e-01 7.6764397929266992e-01  6.4362025074740103e-01 1.4428885028748975e-01 7.6393501613129933e-01  6.4225490863877188e-01 1.4270187976914475e-01 7.6036319231629690e-01  6.4096544467867622e-01 1.4122176854165144e-01 7.5694710257933662e-01  6.3975866445145824e-01 1.3985281335640168e-01 7.5371304719494170e-01  6.3864770686191319e-01 1.3860648390909711e-01 7.5070429400579897e-01  6.3764963970619415e-01 1.3749815284627259e-01 7.4797583206199014e-01  6.3679726975042472e-01 1.3656026160957493e-01 7.4562656917556969e-01  6.3562881648791925e-01 1.3529223452071601e-01 7.4236859768287455e-01  6.3482936324007377e-01 1.3443694865886710e-01 7.4011338004485516e-01  6.3389513177517287e-01 1.3344634902273680e-01 7.3745813444086761e-01  6.3278655883935864e-01 1.3228182485452544e-01 7.3428211408034882e-01  6.3028655591798000e-01 1.2968481695513392e-01 7.2705420202134952e-01  6.3000471983915385e-01 1.2939428108289158e-01 7.2623506844332419e-01  6.2989755075250786e-01 1.2928420744041122e-01 7.2592285153770064e-01  6.2989537077172941e-01 1.2928197343706921e-01 7.2591648904099504e-01  6.2996096108059196e-01 1.2934922527115184e-01 7.2610763195635575e-01  6.3000580474175139e-01 1.2939538245574900e-01 7.2623733637035903e-01  6.2992656760249799e-01 1.2931459405512657e-01 7.2600341284252257e-01  6.2929660946079813e-01 1.2867396238493220e-01 7.2414886944952306e-01  6.2896974402300021e-01 1.2834433363929418e-01 7.2318287027985839e-01  6.2870501381140831e-01 1.2807889612193188e-01 7.2239856777183098e-01  6.2852867108079347e-01 1.2790276561590225e-01 7.2187521005701194e-01  6.2847018737045435e-01 1.2784444044923121e-01 7.2170148627126707e-01  6.2851668831204144e-01 1.2789073031716455e-01 7.2183962447217309e-01  6.2864895425610767e-01 1.2802248161855517e-01 7.2223232586006958e-01  6.2886663387224173e-01 1.2823917212138589e-01 7.2287805723813636e-01  6.2907247166078428e-01 1.2843199874941227e-01 7.2349374521385024e-01  6.2887980455623793e-01 1.2823150798450869e-01 7.2292654103336951e-01  6.2869851778956043e-01 1.2804398228241567e-01 7.2239155880230632e-01  6.2855224457471071e-01 1.2789265584635395e-01 7.2195942910359912e-01  6.2845046749824185e-01 1.2778700363420761e-01 7.2165868071385308e-01  6.2840253799238399e-01 1.2773432803058080e-01 7.2151823169231766e-01  6.2842127478385590e-01 1.2774853649731352e-01 7.2157588451028198e-01  6.2846009501