<?xml version="1.0"?>
<VTKFile type="UnstructuredGrid"  version="0.1"  >
<UnstructuredGrid>
<Piece  NumberOfPoints="7288" NumberOfCells="14083">
<Points>
<DataArray  type="Float64"  NumberOfComponents="3"  format="ascii">239.8 188 0  250.2 180 0  258.2 172.4 0  257 169.4 0  259.9 157.4 0  258.7 150.3 0  261 143.5 0  251.7 144.4 0  250 138.7 0  247 138.1 0  245.2 130.8 0  247.3 126.4 0  242.7 118.6 0  231.2 107.7 0  226 102.4 0  226.5 93.90000000000001 0  224.5 91.19999999999999 0  224.5 84.09999999999999 0  234.5 73.80000000000001 0  228.4 68.90000000000001 0  230 70 0  233.4 68 0  222.7 61.5 0  220.6 45.5 0  223.4 49.40000000000001 0  224 47 0  221.8 43.09999999999999 0  221 38.40000000000001 0  219.5 38.5 0  219.4 41.69999999999999 0  217.1 36.90000000000001 0  209.7 36 0  209.5 31.69999999999999 0  205.1 29.90000000000001 0  201.5 30.40000000000001 0  199.2 38.69999999999999 0  201.8 41.40000000000001 0  194.8 53.80000000000001 0  196.1 57.69999999999999 0  193 59 0  191.4 66.09999999999999 0  193.5 66.5 0  194.1 64.40000000000001 0  195.6 64.69999999999999 0  195.4 72.40000000000001 0  199.5 77.30000000000001 0  197.7 86.90000000000001 0  200.6 87.5 0  201.5 91 0  198 94.80000000000001 0  198.6 100 0  197.3 105.4 0  198 109.5 0  197 112.7 0  198.3 116.1 0  201.3 122 0  207.2 121 0  208.1 126.7 0  205.6 127.9 0  209.1 134.9 0  210.9 144.4 0  210.1 147.9 0  213 148.4 0  215.4 149.3 0  215.1 152.8 0  219.9 159.7 0  220.3 163.2 0  218.7 164.9 0  219.9 166.7 0  221.9 169.7 0  220 170.3 0  224.9 174.7 0  229.8 177.4 0  229.7 181 0  228 172.9 0  239 178 0  240.4 180 0  239 181.5 0  241.2 185.9 0  242.95 187.99 0  240.5875 187.9975 0  241.375 187.995 0  242.1625 187.9925 0  243.6090909090879 187.2636363636397 0  244.2681818181765 186.5372727272785 0  244.9272727272692 185.810909090913 0  245.5863636363531 185.0845454545571 0  246.245454545445 184.3581818181923 0  246.9045454545351 183.6318181818295 0  247.5636363636303 182.9054545454612 0  248.2227272727197 182.1790909090992 0  248.8818181818179 181.4527272727275 0  249.5409090909066 180.7263636363664 0  250.8666666666961 179.3666666666387 0  251.5333333334033 178.7333333332668 0  252.2000000000994 178.0999999999055 0  252.8666666668011 177.466666666539 0  253.5333333335083 176.8333333331671 0  254.2000000002044 176.1999999998058 0  254.8666666669005 175.5666666664445 0  255.5333333336077 174.9333333330727 0  256.2000000002685 174.2999999997449 0  256.8666666668457 173.6666666664966 0  257.5333333334283 173.033333333243 0  257.9000000000077 171.6500000000191 0  257.6000000000015 170.9000000000038 0  257.2999999999954 170.1499999999885 0  257.2230769230778 168.4769230769195 0  257.4461538461543 167.5538461538442 0  257.6692307692309 166.6307692307688 0  257.8923076923074 165.7076923076935 0  258.115384615384 164.7846153846181 0  258.3384615384605 163.8615384615427 0  258.5615384615395 162.9384615384572 0  258.784615384616 162.0153846153819 0  259.0076923076926 161.0923076923065 0  259.2307692307691 160.1692307692311 0  259.4538461538457 159.2461538461558 0  259.6769230769222 158.3230769230804 0  259.750000000001 156.512500000006 0  259.6000000000014 155.6250000000082 0  259.4500000000029 154.7375000000176 0  259.3000000000018 153.8500000000108 0  259.1500000000007 152.962500000004 0  259.0000000000004 152.0750000000026 0  258.849999999999 151.187499999994 0  258.9875000000052 149.4499999999846 0  259.275000000002 148.5999999999941 0  259.5624999999954 147.7500000000135 0  259.849999999995 146.900000000015 0  260.1374999999945 146.0500000000164 0  260.4249999999913 145.2000000000259 0  260.7124999999948 144.3500000000154 0  260.0700000000398 143.5899999999961 0  259.1400000000573 143.6799999999944 0  258.2100000000351 143.7699999999966 0  257.2800000000262 143.8599999999975 0  256.350000000011 143.9499999999989 0  255.4199999999881 144.0400000000011 0  254.4899999999726 144.1300000000026 0  253.5599999999944 144.2200000000005 0  252.6300000000009 144.3099999999999 0  251.4166666666658 143.4499999999971 0  251.1333333333388 142.5000000000182 0  250.8500000000015 141.5500000000051 0  250.5666666666612 140.5999999999818 0  250.2833333333342 139.6500000000029 0  249.2500000000005 138.5500000000001 0  248.5000000000011 138.4000000000002 0  247.7499999999995 138.2499999999999 0  246.7750000000005 137.1875000000023 0  246.5500000000021 136.2750000000085 0  246.3250000000036 135.3625000000147 0  246.1000000000042 134.450000000017 0  245.8750000000022 133.5375000000088 0  245.650000000003 132.6250000000124 0  245.4250000000046 131.7125000000187 0  245.619999999996 129.9200000000084 0  246.0399999999992 129.0400000000017 0  246.4599999999987 128.1600000000028 0  246.8800000000001 127.2799999999997 0  246.8399999999988 125.6199999999979 0  246.3799999999984 124.8399999999973 0  245.9199999999991 124.0599999999985 0  245.4600000000036 123.2800000000062 0  245.0000000000049 122.5000000000082 0  244.5400000000036 121.7200000000062 0  244.0800000000033 120.9400000000056 0  243.6200000000016 120.1600000000027 0  243.1600000000012 119.3800000000021 0  241.9812499999996 117.9187499999997 0  241.2625000000007 117.2375000000007 0  240.5437500000017 116.5562500000017 0  239.8250000000041 115.875000000004 0  239.1062500000066 115.1937500000063 0  238.3875000000076 114.5125000000072 0  237.6687500000087 113.8312500000082 0  236.9500000000083 113.1500000000079 0  236.231250000008 112.4687500000076 0  235.512500000009 111.7875000000085 0  234.7937500000045 111.1062500000043 0  234.0750000000042 110.4250000000039 0  233.3562500000066 109.7437500000062 0  232.6375000000021 109.062500000002 0  231.9187500000031 108.381250000003 0  230.5500000000004 107.0375000000004 0  229.9000000000021 106.3750000000021 0  229.2500000000038 105.7125000000039 0  228.6000000000041 105.0500000000042 0  227.9500000000018 104.3875000000018 0  227.2999999999952 103.7249999999951 0  226.6500000000024 103.0625000000024 0  226.0555555555555 101.4555555555556 0  226.1111111111111 100.5111111111111 0  226.1666666666667 99.56666666666668 0  226.2222222222222 98.62222222222223 0  226.2777777777778 97.67777777777778 0  226.3333333333333 96.73333333333335 0  226.3888888888889 95.78888888888889 0  226.4444444444445 94.84444444444446 0  226 93.22499999999999 0  225.5000000000026 92.55000000000358 0  225.0000000000026 91.87500000000358 0  224.5 90.31250000000068 0  224.5 89.4250000000097 0  224.5 88.53750000001317 0  224.5 87.65000000001388 0  224.5 86.76250000001457 0  224.5 85.87500000001248 0  224.5 84.9874999999993 0  225.1666666666659 83.41333333333409 0  225.8333333333319 82.72666666666818 0  226.4999999999978 82.04000000000228 0  227.1666666666649 81.35333333333514 0  227.8333333333301 80.66666666667 0  228.4999999999942 79.980000000006 0  229.1666666666601 79.2933333333401 0  229.8333333333316 78.60666666666847 0  230.4999999999975 77.92000000000257 0  231.1666666666644 77.23333333333572 0  231.8333333333295 76.54666666667057 0  232.4999999999972 75.86000000000287 0  233.1666666666681 75.17333333333181 0  233.8333333333368 74.48666666666306 0  233.7499999999995 73.16666666666629 0  233.0000000000018 72.53333333333488 0  232.2500000000014 71.90000000000116 0  231.5000000000009 71.26666666666743 0  230.7500000000005 70.63333333333372 0  229.233333333333 68.75000000000006 0  230.0666666666665 68.60000000000004 0  230.8999999999995 68.45000000000009 0  231.7333333333325 68.30000000000015 0  232.566666666667 68.14999999999995 0  232.5499999999897 68.50000000000607 0  231.7 69 0  230.8500000000103 69.49999999999393 0  227.8300000000008 68.16000000000106 0  227.2600000000064 67.42000000000837 0  226.6900000000077 66.68000000001001 0  226.1200000000024 65.94000000000314 0  225.5500000000108 65.20000000001409 0  224.9800000000098 64.46000000001268 0  224.4100000000007 63.72000000000098 0  223.8399999999971 62.97999999999621 0  223.2699999999993 62.23999999999915 0  222.753846153846 60.56923076923239 0  222.8076923076921 59.63846153846478 0  222.8615384615381 58.70769230769827 0  222.9153846153842 57.77692307693071 0  222.9692307692302 56.84615384616315 0  223.0230769230761 55.91538461539836 0  223.0769230769224 54.98461538462665 0  223.1307692307688 54.05384615385345 0  223.184615384615 53.12307692308312 0  223.2384615384611 52.19230769231556 0  223.2923076923071 51.26153846154906 0  223.3461538461533 50.33076923077847 0  222.8400000000024 48.62000000000327 0  222.2800000000047 47.84000000000661 0  221.7200000000005 47.06000000000071 0  221.1600000000003 46.28000000000039 0  221.4500000000116 45.87500000000512 0  222.3 46.25 0  223.1499999999884 46.62499999999488 0  223.5600000000055 46.22000000000981 0  223.1199999999987 45.43999999999767 0  222.6800000000061 44.66000000001075 0  222.2399999999969 43.8799999999944 0  221.6400000000004 42.16000000000253 0  221.4800000000009 41.22000000000548 0  221.3200000000014 40.28000000000801 0  221.1600000000009 39.34000000000556 0  220.25 38.45 0  219.4749999999999 39.30000000000165 0  219.45 40.09999999999999 0  219.425 40.90000000000112 0  219.0166666666641 40.89999999999463 0  218.6333333333375 40.10000000000875 0  218.2500000000016 39.30000000000339 0  217.8666666666635 38.49999999999351 0  217.483333333337 37.70000000000762 0  216.1750000000165 36.78750000000201 0  215.2500000000275 36.67500000000335 0  214.3250000000385 36.56250000000469 0  213.4000000000277 36.45000000000337 0  212.4750000000059 36.33750000000072 0  211.5499999999838 36.22499999999803 0  210.6249999999835 36.11249999999799 0  209.6600000000001 35.14000000000318 0  209.6200000000001 34.28000000000268 0  209.5800000000001 33.42000000000284 0  209.5399999999998 32.55999999999681 0  208.6200000000117 31.34000000000476 0  207.7400000000138 30.98000000000564 0  206.8600000000162 30.62000000000662 0  205.9800000000174 30.26000000000711 0  204.2000000000054 30.02499999999925 0  203.2999999999946 30.15000000000076 0  202.3999999999945 30.27500000000076 0  201.2444444444438 31.32222222222468 0  200.9888888888895 32.24444444
[...]
<PointData  Vectors="f_12"> 
<DataArray  type="Float64"  Name="f_12"  NumberOfComponents="3" format="ascii">5.0962525229693323e-01 8.0811327514931003e-02 2.5342867404091496e-01  5.0241108379988897e-01 8.5826018108721064e-02 2.2036930566992652e-01  4.9693651899101865e-01 9.0989070122615187e-02 1.9508619287122358e-01  4.9547420852623020e-01 9.3082771992074112e-02 1.8804008187422189e-01  4.8887314396197373e-01 1.0500516055553517e-01 1.5549177158649927e-01  4.8638737801652215e-01 1.1268116332618969e-01 1.4180976125336633e-01  4.8576291036878000e-01 1.1431401599082727e-01 1.3856314276139847e-01  4.8409955032334379e-01 1.2941415395050024e-01 1.2409767896666987e-01  4.8274230412992475e-01 1.4646710005823504e-01 1.0970050989100470e-01  4.8262666655921610e-01 1.5274290125765408e-01 1.0577766221470565e-01  4.8282174628980790e-01 1.7114116664383475e-01 9.6064114274978726e-02  4.8297124207692521e-01 1.7537012037572286e-01 9.4179302386075692e-02  4.8297358154169179e-01 1.7378237019596895e-01 9.5146995340146256e-02  4.8664070878917048e-01 1.5831910626263324e-01 1.1822415220320934e-01  5.1658635196508929e-01 1.4112989916622712e-01 2.5264254935850478e-01  6.3413375228530111e-01 2.0216201808063788e-01 7.0393304014671876e-01  6.9189587378118023e-01 3.4180281989966005e-01 7.5263954350990969e-01  7.1685749145872124e-01 6.8894145502705573e-01 3.8013188495485772e-01  5.9976332653917086e-01 6.4524970822835048e-01 1.2165713694758239e-01  5.8793957109685380e-01 6.1013391963765939e-01 1.2070497474237356e-01  5.9010325363884975e-01 6.1987035443447436e-01 1.1767003452965936e-01  5.8152770536861043e-01 6.0341000428211944e-01 1.0693904846973876e-01  5.3026459009761295e-01 3.5540017396774848e-01 1.4449243126154873e-01  5.7348562865083352e-01 9.3427056461871147e-02 5.2348536911669397e-01  5.2604075976308851e-01 9.1382255309882518e-02 3.1901634751932229e-01  5.8668037178042831e-01 9.5420717321078458e-02 5.8049645522135407e-01  5.9000643928867058e-01 9.8190540004849808e-02 5.9170664305114162e-01  6.0401955159206100e-01 1.0589232543349344e-01 6.4398237783312395e-01  6.0398293123426117e-01 1.0587179886598726e-01 6.4384777875593269e-01  5.9737153417366773e-01 1.0232235351779358e-01 6.1921934404768497e-01  6.1449195183627447e-01 1.1436521250445428e-01 6.7893171009400510e-01  6.2633113373153559e-01 1.2536502335203661e-01 7.1563019930082383e-01  6.3452207779168568e-01 1.3358080025755770e-01 7.3960834902207495e-01  6.3616539200770916e-01 1.3533852824586606e-01 7.4420547463976527e-01  6.3616235600973225e-01 1.3534160355551308e-01 7.4419403025323949e-01  6.2691722803882766e-01 1.2599698230099807e-01 7.1740936961739388e-01  6.1105649956095709e-01 1.1286462036722614e-01 6.6573292201047618e-01  5.1971586122672897e-01 8.8356320406978980e-02 2.9347069548306914e-01  5.0154488796194774e-01 1.2137341529438486e-01 1.9766382988716408e-01  4.9298794350181158e-01 1.4005961895791055e-01 1.5259123523816220e-01  5.1282387513488281e-01 3.2114725665860128e-01 1.0686463299821515e-01  5.1407877942111113e-01 3.2003919163568378e-01 1.1211823712920931e-01  4.9818924840829132e-01 1.9858290228601480e-01 1.3600391518127947e-01  5.0469704466690357e-01 2.4225415473674924e-01 1.3127870075041717e-01  5.4872767243608445e-01 4.5078523823358457e-01 1.3415250519316407e-01  6.2714292603352872e-01 6.6208171549221295e-01 1.8359322517180657e-01  6.9465254746809013e-01 7.5684535876539172e-01 2.3779324492124651e-01  7.1018533748115431e-01 7.3915114695597461e-01 2.9401712557037346e-01  7.4638462571724007e-01 6.3707225799629041e-01 5.0946462642097534e-01  7.5364023735304730e-01 5.1165955086064185e-01 6.9345119789248766e-01  7.1113575596844147e-01 3.2683690347025007e-01 8.1602197708595536e-01  6.4223162747126850e-01 1.6858421606322255e-01 7.5406542880226901e-01  5.9434624858227936e-01 1.1444424695670682e-01 6.0704880363501923e-01  5.7019622822091598e-01 9.5502986599552961e-02 5.1664456919240231e-01  5.5098474001452202e-01 8.8114475951465224e-02 4.3548004021167208e-01  5.2589197494146489e-01 8.4817180309817358e-02 3.2528986920780223e-01  5.0435118653006750e-01 9.8315714403397356e-02 2.2355418414518632e-01  4.9161577299184139e-01 1.0121283137468844e-01 1.6879791873397101e-01  4.9169650702416423e-01 9.8985541048231471e-02 1.7017849295812310e-01  4.9052182695971286e-01 1.0061598129463144e-01 1.6445170179070043e-01  4.8975070338809623e-01 1.0190698316238847e-01 1.6061104753377187e-01  4.8982361458172435e-01 1.0158619269730665e-01 1.6105724044894229e-01  4.8939554773249405e-01 1.0292226087402705e-01 1.5866852302544227e-01  4.8849903224466817e-01 1.0567045356245865e-01 1.5370627212453492e-01  4.8826271850537400e-01 1.0609477134483548e-01 1.5256122490404722e-01  4.8940626553912508e-01 1.0379268187323699e-01 1.5821755334280407e-01  4.9135366106455391e-01 9.9498687646278991e-02 1.6814558397035850e-01  4.9212661244855832e-01 9.7819002262891211e-02 1.7209655505546168e-01  4.9256901531085917e-01 9.6965331828967771e-02 1.7431094509564521e-01  4.9336717448242529e-01 9.5540740721531514e-02 1.7825337878036104e-01  4.9325131787888188e-01 9.5669143353770567e-02 1.7772157256402146e-01  4.9451219610244290e-01 9.3768675374052438e-02 1.8378954622627941e-01  4.9742921055270684e-01 9.0231974153124339e-02 1.9748908672681448e-01  4.9807341296430624e-01 8.9369520103782032e-02 2.0057968272640428e-01  4.9487285152714172e-01 9.3576430469393124e-02 1.8534395932742301e-01  4.9982581410612920e-01 8.8498671565224715e-02 2.0823162727636593e-01  5.0406896156396641e-01 8.4899462920807828e-02 2.2776263920834686e-01  5.0603390667602399e-01 8.3293338148197296e-02 2.3686466014551441e-01  5.0889518092209196e-01 8.1273765405195542e-02 2.5007299700032504e-01  5.0930769000299381e-01 8.1004454612171234e-02 2.5197228803700528e-01  5.0958601554325078e-01 8.0835432559114587e-02 2.5324854103085370e-01  5.0949933768196143e-01 8.0888265481171354e-02 2.5285087204775092e-01  5.0939767534980906e-01 8.0949791223693335e-02 2.5238479593556185e-01  5.0908705414092470e-01 8.1141223937002793e-02 2.5096002806628875e-01  5.0869351868821322e-01 8.1387851363413102e-02 2.4915461898855210e-01  5.0818524859119174e-01 8.1710969613992393e-02 2.4682345650724366e-01  5.0759104220068429e-01 8.2095616002023558e-02 2.4409908805065963e-01  5.0692902288830266e-01 8.2533140491194965e-02 2.4106493905592652e-01  5.0622070430695199e-01 8.3012014677676910e-02 2.3782013188995460e-01  5.0547522323449767e-01 8.3529687112496906e-02 2.3440574607983922e-01  5.0471122022975223e-01 8.4075303999795820e-02 2.3090699504061157e-01  5.0394533074105230e-01 8.4638848821811649e-02 2.2739969614930489e-01  5.0317812052222399e-01 8.5222672629049590e-02 2.2388490125028571e-01  5.0172285435183883e-01 8.6383512482362368e-02 2.1721378933424354e-01  5.0108744560501006e-01 8.6914041880761406e-02 2.1429858004391997e-01  5.0048705641905067e-01 8.7432597293926190e-02 2.1154063614910623e-01  4.9992081803602340e-01 8.7938296250282849e-02 2.0893586807473730e-01  4.9939076275653499e-01 8.8427612987999768e-02 2.0649372448796044e-01  4.9889798715565864e-01 8.8897362529493748e-02 2.0421947949867261e-01  4.9843953774406802e-01 8.9350258647246453e-02 2.0209870513967632e-01  4.9801922170933316e-01 8.9780750731923875e-02 2.0014911722902928e-01  4.9764353571008990e-01 9.0180217826888953e-02 1.9840102835520029e-01  4.9732032886710992e-01 9.0538086889102656e-02 1.9689116074039445e-01  4.9706907395535738e-01 9.0828523312990392e-02 1.9571187462464909e-01  4.9680442479858322e-01 9.1171169461633284e-02 1.9445159213136529e-01  4.9652025349831685e-01 9.1571593348914723e-02 1.9308310158291767e-01  4.9610015842129007e-01 9.2173681003532362e-02 1.9105782943720992e-01  4.9469125013154258e-01 9.4236231563067846e-02 1.8426661773047895e-01  4.9401997829123034e-01 9.5250908308085233e-02 1.8102801376447020e-01  4.9339419226701481e-01 9.6227489930938992e-02 1.7800216110771860e-01  4.9280165510046903e-01 9.7186637052161906e-02 1.7512723688576895e-01  4.9223979141580476e-01 9.8133475063946804e-02 1.7238872754553000e-01  4.9170785354601165e-01 9.9068934281098725e-02 1.6978186264683082e-01  4.9120578211130328e-01 9.9991725623175182e-02 1.6730599989097394e-01  4.9073277949562122e-01 1.0090105672244462e-01 1.6495736842784450e-01  4.9029027400300501e-01 1.0179199339901382e-01 1.6274341248836885e-01  4.8987622085426263e-01 1.0266807030540359e-01 1.6065329327125635e-01  4.8949498013998805e-01 1.0351481745271152e-01 1.5871089005370731e-01  4.8915117164915511e-01 1.0431894374510621e-01 1.5694047226872029e-01  4.8860829412657847e-01 1.0570946311920945e-01 1.5408695268322908e-01  4.8829999024235021e-01 1.0657031784093900e-01 1.5243203028490873e-01  4.8797588019482768e-01 1.0751561003484027e-01 1.5067330085750730e-01  4.8764796034328167e-01 1.0851463333820768e-01 1.4887386665347863e-01  4.8732347929711933e-01 1.0954259603012463e-01 1.4707512897812020e-01  4.8700749399183318e-01 1.1057735069468054e-01 1.4530829921391072e-01  4.8669953891492718e-01 1.1161455075718700e-01 1.4357367318114711e-01  4.8614657334596012e-01 1.1345493524751511e-01 1.4047745727708116e-01  4.8598569134352726e-01 1.1395418837348187e-01 1.3959805079212245e-01  4.8588216319680139e-01 1.1423461832581283e-01 1.3905498708284994e-01  4.8581602159709553e-01 1.1438011906730888e-01 1.3872666554022287e-01  4.8577979556642131e-01 1.1441852911080078e-01 1.3856948025251156e-01  4.8576441132975923e-01 1.1439210800185019e-01 1.3852609788749121e-01  4.8576171281692448e-01 1.1434143049802527e-01 1.3854365592670173e-01  4.8575623443333177e-01 1.1437529805975705e-01 1.3850454588485567e-01  4.8572881954252034e-01 1.1460781608212592e-01 1.3827437333553036e-01  4.8567369428468493e-01 1.1505928390595162e-01 1.3782034192298187e-01  4.8558812189220102e-01 1.1576076236219435e-01 1.3711526424679987e-01  4.8546842094980336e-01 1.1675402472021024e-01 1.3612274828588800e-01  4.8531290263389654e-01 1.1807193872929168e-01 1.3481907717069291e-01  4.8511975835572746e-01 1.1975736427230524e-01 1.3317507256942041e-01  4.8488228281018092e-01 1.2189737831559271e-01 1.3111927259939307e-01  4.8457735471205821e-01 1.2474501016595482e-01 1.2842777274997122e-01  4.8360520832450393e-01 1.3465596361770787e-01 1.1939051387574681e-01  4.8329732044346324e-01 1.3824036629635630e-01 1.1628140824422548e-01  4.8306802829158602e-01 1.4119143446249782e-01 1.1381082100285389e-01  4.8290303345108970e-01 1.4359431969203876e-01 1.1187864499042624e-01  4.8279303242373045e-01 1.4543543115022620e-01 1.1045757836701391e-01  4.8272431307646202e-01 1.4704658427090153e-01 1.0931301111578673e-01  4.8269447532966780e-01 1.4824369103528925e-01 1.0853828790232939e-01  4.8266235158096443e-01 1.4998851488007742e-01 1.0744821976488803e-01  4.8260267287178554e-01 1.5645700006631252e-01 1.0360515391173775e-01  4.8260412566454297e-01 1.5920958037531768e-01 1.0205880914828737e-01  4.8261978415746243e-01 1.6158981895075197e-01 1.0076973953355603e-01  4.8264554751248068e-01 1.6373008985025761e-01 9.9649933335324653e-02  4.8267912257932422e-01 1.6568585744645081e-01 9.8660471655424770e-02  4.8271890879927670e-01 1.6750309919455514e-01 9.7769943663289380e-02  4.8276465176156064e-01 1.6924676821634255e-01 9.6940709883116954e-02  4.8287656773583992e-01 1.7279752417512326e-01 9.5313365215727863e-02  4.8291471494072369e-01 1.7388018684138165e-01 9.4830084276239041e-02  4.8294274378567581e-01 1.7463927919597963e-01 9.4495587810416393e-02  4.8296186570555122e-01 1.7513707575321261e-01 9.4278971609020129e-02  4.8297623032539405e-01 1.7547173428073951e-01 9.4139768263423240e-02  4.8298192147690211e-01 1.7555983629673089e-01 9.4111500724826089e-02  4.8298661582628372e-01 1.7559576224706985e-01 9.4110466514954527e-02  4.8298972697207043e-01 1.7556531228317046e-01 9.4142719286677071e-02  4.8299067069586449e-01 1.7545177145428012e-01 9.4215766787846281e-02  4.8298961832033638e-01 1.7525704259832683e-01 9.4329141470716360e-02  4.8298684125678693e-01 1.7498256069847695e-01 9.4482988092742123e-02  4.8298267105855902e-01 1.7462936596695444e-01 9.4677856835893387e-02  4.8297792046019339e-01 1.7421599848922881e-01 9.4905844468841150e-02  4.8296937060352491e-01 1.7320364999033919e-01 9.5474091438378206e-02  4.8296694258367745e-01 1.7246469828660610e-01 9.5902429789500310e-02  4.8296860475727404e-01 1.7160984857044798e-01 9.6414378140586871e-02  4.8297745923101637e-01 1.7066134467657956e-01 9.7008605990046223e-02  4.8299684405510873e-01 1.6963925926768680e-01 9.7685853656688054e-02  4.8303123206442916e-01 1.6856111510571203e-01 9.8452664069113655e-02  4.8308648479630106e-01 1.6745039835846523e-01 9.9317413499296875e-02  4.8316978615010281e-01 1.6632951200905957e-01 1.0029405845733567e-01  4.8328973771476180e-01 1.6521447484959456e-01 1.0140555097504859e-01  4.8345833525539017e-01 1.6413215187693014e-01 1.0268165360915103e-01  4.8368919979887126e-01 1.6309451785511866e-01 1.0416698866919070e-01  4.8399891830631808e-01 1.6210110665244304e-01 1.0592501999523748e-01  4.8441259966568223e-01 1.6116700874873738e-01 1.0804362284099975e-01  4.8496095656944699e-01 1.6023929198903947e-01 1.1067297427313677e-01  4.8568529654619924e-01 1.5931451453229836e-01 1.1397851355534823e-01  4.8780729976625087e-01 1.5729079044002320e-01 1.2332772434651343e-01  4.8929507557483948e-01 1.5611232186130911e-01 1.2980758383708701e-01  4.9119392063419776e-01 1.5471289006030695e-01 1.3809446339940470e-01  4.9368140762807833e-01 1.5301643824449321e-01 1.4900668044999490e-01  4.9690142263138054e-01 1.5091919890574876e-01 1.6328816405907190e-01  5.0116980464110972e-01 1.4834637572048465e-01 1.8243597975553294e-01  5.0712362551596502e-01 1.4517872716939031e-01 2.0944273776893760e-01  5.2844756140973759e-01 1.3804405957288793e-01 3.0650974822538907e-01  5.3952625106941432e-01 1.3700740780983414e-01 3.5627366825000584e-01  5.5137991760149296e-01 1.3801940420246553e-01 4.0831627939826154e-01  5.6440081653214325e-01 1.4157135497031351e-01 4.6348628842609213e-01  5.7859778053134414e-01 1.4815607081830867e-01 5.2076922903639655e-01  5.9367345906626778e-01 1.5816796413783749e-01 5.7770456478917342e-01  6.0896702657814117e-01 1.7158010309675478e-01 6.3063785437410891e-01  6.2331217512630976e-01 1.8745029667968977e-01 6.7500179337596378e-01  6.4329583587343730e-01 2.1828724701467658e-01 7.2238536770251105e-01  6.5680775538386749e-01 2.4604791886600114e-01 7.4262744716468265e-01  6.7270067570839165e-01 2.8495287541169367e-01 7.5521325630088243e-01  7.0972290702535978e-01 4.0753907981672283e-01 7.2779179564660401e-01  7.2125867715168213e-01 4.6294136098121513e-01 6.9081981084207900e-01  7.2862090079821129e-01 5.1270697515478192e-01 6.4551238218818008e-01  7.3253758907292255e-01 5.5738778934428757e-01 5.9560312428972284e-01  7.3331575081190969e-01 5.9670182176985875e-01 5.4398110320911364e-01  7.3119373689513512e-01 6.3094863047656680e-01 4.9200235576791268e-01  7.2618331168109074e-01 6.6054950290337433e-01 4.3989605336128512e-01  7.0503920954274346e-01 7.0829325116100184e-01 3.2751447291988633e-01  6.9459829613987034e-01 7.1703868062104259e-01 2.9221984209905438e-01  6.8435852895770299e-01 7.2030174826437243e-01 2.6421982429515772e-01  6.7417897707717733e-01 7.1970606241350288e-01 2.4067114292092356e-01  6.6408169043372334e-01 7.1616422683519121e-01 2.2018471149616639e-01  6.5414847966351874e-01 7.1031109204193876e-01 2.0200391999792930e-01  6.4450490492370283e-01 7.0265447663261649e-01 1.8574858790824661e-01  6.3531217245889793e-01 6.9369674574054374e-01 1.7125169541428034e-01  6.2674642734050023e-01 6.8398711768937992e-01 1.5845557592956042e-01  6.1902101631449769e-01 6.7413664726974032e-01 1.4742205655366034e-01  6.1234000058988491e-01 6.6480428418729642e-01 1.3822614882582684e-01  6.0692761548415275e-01 6.5669546377821930e-01 1.3099214094641090e-01  6.0296601283321183e-01 6.5045541765271475e-01 1.2580877891077577e-01  6.0056234108892059e-01 6.4654518681424211e-01 1.2270706832602002e-01  5.9969957862720102e-01 6.4494101227155465e-01 1.2177968191028508e-01  5.9922871151483970e-01 6.4354587235551441e-01 1.2178952441402803e-01  5.9826229004320342e-01 6.4086028188102384e-01 1.2160852595783678e-01  5.9674502013007369e-01 6.3673187127984765e-01 1.2118946297383862e-01  5.9437313289027349e-01 6.3047899679606467e-01 1.2023222087406736e-01  5.8796765002055396e-01 6.1379238908841471e-01 1.1713771462276878e-01  5.8649175120454755e-01 6.1232064431073530e-01 1.1391277381248421e-01  5.8455535487009602e-01 6.0903182829876368e-01 1.1103210987966351e-01  5.8300964933666977e-01 6.0620732625319795e-01 1.0890770990468387e-01  5.8200901240594893e-01 6.0432584017545099e-01 1.0757371294607253e-01  5.8210588828297483e-01 6.0450985305372973e-01 1.0770163633369179e-01  5.8345601041690376e-01 6.0704987440939329e-01 1.0949644155557681e-01  5.8571122245360308e-01 6.1125633914283672e-01 1.1248009432533701e-01  5.8476075956326179e-01 5.9770144398431257e-01 1.2290009825033184e-01  5.8095211690115978e-01 5.8381212007897942e-01 1.2418317621086930e-01  5.7659449412254815e-01 5.6771121426978177e-01 1.2540167544495182e-01  5.7174688523918327e-01 5.4911845049435093e-01 1.2684620572433186e-01  5.6641830413119898e-01 5.2770090084497012e-01 1.2865271251334143e-01  5.6062339479282841e-01 5.0320599198951577e-01 1.3088046159386463e-01  5.5433027836252946e-01 4.7520249452335284e-01 1.3353142175400368e-01  5.4745085297619622e-01 4.4300495334484319e-01 1.3656529930787256e-01  5.3978441054048043e-01 4.0518240581530107e-01 1.4003209983047762e-01  5.2121868521188863e-01 3.0452585467545856e-01 1.4947107796763595e-01  5.1498867970358220e-01 2.6570001918016706e-01 1.5431302682858247e-01  5.1039790062933899e-01 2.3255421776830368e-01 1.6016381109196537e-01  5.0728927109342170e-01 2.0406779557358298e-01 1.6763707872454764e-01  5.0554978301666242e-01 1.7956686539119610e-01 1.7714812193667007e-01  5.0512373895638751e-01 1.5875242850441784e-01 1.8899191672134230e-01  5.0591935886851069e-01 1.4128460692434427e-01 2.0331049049589342e-01  5.0781787721210392e-01 1.2684433296989453e-01 2.2008488633282036e-01  5.1066455373077491e-01 1.1512072092834558e-01 2.3909560181829559e-01  5.1426741463501613e-01 1.0587374086773187e-01 2.5986342760919745e-01  5.1837905376588500e-01 9.8881231893537133e-02 2.8157439629757863e-01  5.2263701112206551e-01 9.4002912430414767e-02 3.0277342173878552e-01  5.3030762218448912e-01 8.9921671708503390e-02 3.3828404580985388e-01  5.3690380463143528e-01 8.9014313254564770e-02 3.6729808593344765e-01  5.4545986659412227e-01 8.9111686706257368e-02 4.0424312844964999e-01  5.5650161652439389e-01 9.0384767122500584e-02 4.5137217075257463e-01  5.8246729548785214e-01 9.4993090333692326e-02 5.6197025093384778e-01  5.8527989268432112e-01 9.5321721463962103e-02 5.7428379591502221e-01  5.8633833416780590e-01 9.5398398152282279e-02 5.7897896506072655e-01  5.8636020501435915e-01 9.5400198955447407e-02 5.7907564381770738e-01  5.8574263792921766e-01 9.5412513101462870e-02 5.7626203207892557e-01  5.8546054005615100e-01 9.5660612075260207e-02 5.7464128675720083e-01  5.8667718621344778e-01 9.6495042693252125e-02 5.7899593186453191e-01  5.9460629958984945e-01 1.0051577677342405e-01 6.0924446249885278e-01  5.9846859168928379e-01 1.0261932853115897e-01 6.2369490389809168e-01  6.0142980328732332e-01 1.0432414512560356e-01 6.3459635981585305e-01  6.0333318730904928e-01 1.0546936358977817e-01 6.4150871672374987e-01  6.0396093090510994e-01 1.0585747546115432e-01 6.4376939041593539e-01  6.0348873992719754e-01 1.0557082888328033e-01 6.4206249590178144e-01  6.0215305677522524e-01 1.0477712159834990e-01 6.3720445231715761e-01  6.0009939424969194e-01 1.0363312835629934e-01 6.2961612636283282e-01  6.0121039832830792e-01 1.0484452732400215e-01 6.3300544633504963e-01  6.0505571286550319e-01 1.0741812680755498e-01 6.4665636019917117e-01  6.0849925551969375e-01 1.0984299392190892e-01 6.5864378830941095e-01  6.1134089461544261e-01 1.1193721311696457e-01 6.6835762041930047e-01  6.1343154352402163e-01 1.1353334252141541e-01 6.7539942952817178e-01  6.1518785459716474e-01 1.1494416081226845e-01 6.8120262330115489e-01  6.1616794925737750e-01 1.1578699780753016e-01 6.8436196958427131e-01  6.1727735797