<?xml version="1.0"?>
<VTKFile type="UnstructuredGrid"  version="0.1"  >
<UnstructuredGrid>
<Piece  NumberOfPoints="7288" NumberOfCells="14083">
<Points>
<DataArray  type="Float64"  NumberOfComponents="3"  format="ascii">239.8 188 0  250.2 180 0  258.2 172.4 0  257 169.4 0  259.9 157.4 0  258.7 150.3 0  261 143.5 0  251.7 144.4 0  250 138.7 0  247 138.1 0  245.2 130.8 0  247.3 126.4 0  242.7 118.6 0  231.2 107.7 0  226 102.4 0  226.5 93.90000000000001 0  224.5 91.19999999999999 0  224.5 84.09999999999999 0  234.5 73.80000000000001 0  228.4 68.90000000000001 0  230 70 0  233.4 68 0  222.7 61.5 0  220.6 45.5 0  223.4 49.40000000000001 0  224 47 0  221.8 43.09999999999999 0  221 38.40000000000001 0  219.5 38.5 0  219.4 41.69999999999999 0  217.1 36.90000000000001 0  209.7 36 0  209.5 31.69999999999999 0  205.1 29.90000000000001 0  201.5 30.40000000000001 0  199.2 38.69999999999999 0  201.8 41.40000000000001 0  194.8 53.80000000000001 0  196.1 57.69999999999999 0  193 59 0  191.4 66.09999999999999 0  193.5 66.5 0  194.1 64.40000000000001 0  195.6 64.69999999999999 0  195.4 72.40000000000001 0  199.5 77.30000000000001 0  197.7 86.90000000000001 0  200.6 87.5 0  201.5 91 0  198 94.80000000000001 0  198.6 100 0  197.3 105.4 0  198 109.5 0  197 112.7 0  198.3 116.1 0  201.3 122 0  207.2 121 0  208.1 126.7 0  205.6 127.9 0  209.1 134.9 0  210.9 144.4 0  210.1 147.9 0  213 148.4 0  215.4 149.3 0  215.1 152.8 0  219.9 159.7 0  220.3 163.2 0  218.7 164.9 0  219.9 166.7 0  221.9 169.7 0  220 170.3 0  224.9 174.7 0  229.8 177.4 0  229.7 181 0  228 172.9 0  239 178 0  240.4 180 0  239 181.5 0  241.2 185.9 0  242.95 187.99 0  240.5875 187.9975 0  241.375 187.995 0  242.1625 187.9925 0  243.6090909090879 187.2636363636397 0  244.2681818181765 186.5372727272785 0  244.9272727272692 185.810909090913 0  245.5863636363531 185.0845454545571 0  246.245454545445 184.3581818181923 0  246.9045454545351 183.6318181818295 0  247.5636363636303 182.9054545454612 0  248.2227272727197 182.1790909090992 0  248.8818181818179 181.4527272727275 0  249.5409090909066 180.7263636363664 0  250.8666666666961 179.3666666666387 0  251.5333333334033 178.7333333332668 0  252.2000000000994 178.0999999999055 0  252.8666666668011 177.466666666539 0  253.5333333335083 176.8333333331671 0  254.2000000002044 176.1999999998058 0  254.8666666669005 175.5666666664445 0  255.5333333336077 174.9333333330727 0  256.2000000002685 174.2999999997449 0  256.8666666668457 173.6666666664966 0  257.5333333334283 173.033333333243 0  257.9000000000077 171.6500000000191 0  257.6000000000015 170.9000000000038 0  257.2999999999954 170.1499999999885 0  257.2230769230778 168.4769230769195 0  257.4461538461543 167.5538461538442 0  257.6692307692309 166.6307692307688 0  257.8923076923074 165.7076923076935 0  258.115384615384 164.7846153846181 0  258.3384615384605 163.8615384615427 0  258.5615384615395 162.9384615384572 0  258.784615384616 162.0153846153819 0  259.0076923076926 161.0923076923065 0  259.2307692307691 160.1692307692311 0  259.4538461538457 159.2461538461558 0  259.6769230769222 158.3230769230804 0  259.750000000001 156.512500000006 0  259.6000000000014 155.6250000000082 0  259.4500000000029 154.7375000000176 0  259.3000000000018 153.8500000000108 0  259.1500000000007 152.962500000004 0  259.0000000000004 152.0750000000026 0  258.849999999999 151.187499999994 0  258.9875000000052 149.4499999999846 0  259.275000000002 148.5999999999941 0  259.5624999999954 147.7500000000135 0  259.849999999995 146.900000000015 0  260.1374999999945 146.0500000000164 0  260.4249999999913 145.2000000000259 0  260.7124999999948 144.3500000000154 0  260.0700000000398 143.5899999999961 0  259.1400000000573 143.6799999999944 0  258.2100000000351 143.7699999999966 0  257.2800000000262 143.8599999999975 0  256.350000000011 143.9499999999989 0  255.4199999999881 144.0400000000011 0  254.4899999999726 144.1300000000026 0  253.5599999999944 144.2200000000005 0  252.6300000000009 144.3099999999999 0  251.4166666666658 143.4499999999971 0  251.1333333333388 142.5000000000182 0  250.8500000000015 141.5500000000051 0  250.5666666666612 140.5999999999818 0  250.2833333333342 139.6500000000029 0  249.2500000000005 138.5500000000001 0  248.5000000000011 138.4000000000002 0  247.7499999999995 138.2499999999999 0  246.7750000000005 137.1875000000023 0  246.5500000000021 136.2750000000085 0  246.3250000000036 135.3625000000147 0  246.1000000000042 134.450000000017 0  245.8750000000022 133.5375000000088 0  245.650000000003 132.6250000000124 0  245.4250000000046 131.7125000000187 0  245.619999999996 129.9200000000084 0  246.0399999999992 129.0400000000017 0  246.4599999999987 128.1600000000028 0  246.8800000000001 127.2799999999997 0  246.8399999999988 125.6199999999979 0  246.3799999999984 124.8399999999973 0  245.9199999999991 124.0599999999985 0  245.4600000000036 123.2800000000062 0  245.0000000000049 122.5000000000082 0  244.5400000000036 121.7200000000062 0  244.0800000000033 120.9400000000056 0  243.6200000000016 120.1600000000027 0  243.1600000000012 119.3800000000021 0  241.9812499999996 117.9187499999997 0  241.2625000000007 117.2375000000007 0  240.5437500000017 116.5562500000017 0  239.8250000000041 115.875000000004 0  239.1062500000066 115.1937500000063 0  238.3875000000076 114.5125000000072 0  237.6687500000087 113.8312500000082 0  236.9500000000083 113.1500000000079 0  236.231250000008 112.4687500000076 0  235.512500000009 111.7875000000085 0  234.7937500000045 111.1062500000043 0  234.0750000000042 110.4250000000039 0  233.3562500000066 109.7437500000062 0  232.6375000000021 109.062500000002 0  231.9187500000031 108.381250000003 0  230.5500000000004 107.0375000000004 0  229.9000000000021 106.3750000000021 0  229.2500000000038 105.7125000000039 0  228.6000000000041 105.0500000000042 0  227.9500000000018 104.3875000000018 0  227.2999999999952 103.7249999999951 0  226.6500000000024 103.0625000000024 0  226.0555555555555 101.4555555555556 0  226.1111111111111 100.5111111111111 0  226.1666666666667 99.56666666666668 0  226.2222222222222 98.62222222222223 0  226.2777777777778 97.67777777777778 0  226.3333333333333 96.73333333333335 0  226.3888888888889 95.78888888888889 0  226.4444444444445 94.84444444444446 0  226 93.22499999999999 0  225.5000000000026 92.55000000000358 0  225.0000000000026 91.87500000000358 0  224.5 90.31250000000068 0  224.5 89.4250000000097 0  224.5 88.53750000001317 0  224.5 87.65000000001388 0  224.5 86.76250000001457 0  224.5 85.87500000001248 0  224.5 84.9874999999993 0  225.1666666666659 83.41333333333409 0  225.8333333333319 82.72666666666818 0  226.4999999999978 82.04000000000228 0  227.1666666666649 81.35333333333514 0  227.8333333333301 80.66666666667 0  228.4999999999942 79.980000000006 0  229.1666666666601 79.2933333333401 0  229.8333333333316 78.60666666666847 0  230.4999999999975 77.92000000000257 0  231.1666666666644 77.23333333333572 0  231.8333333333295 76.54666666667057 0  232.4999999999972 75.86000000000287 0  233.1666666666681 75.17333333333181 0  233.8333333333368 74.48666666666306 0  233.7499999999995 73.16666666666629 0  233.0000000000018 72.53333333333488 0  232.2500000000014 71.90000000000116 0  231.5000000000009 71.26666666666743 0  230.7500000000005 70.63333333333372 0  229.233333333333 68.75000000000006 0  230.0666666666665 68.60000000000004 0  230.8999999999995 68.45000000000009 0  231.7333333333325 68.30000000000015 0  232.566666666667 68.14999999999995 0  232.5499999999897 68.50000000000607 0  231.7 69 0  230.8500000000103 69.49999999999393 0  227.8300000000008 68.16000000000106 0  227.2600000000064 67.42000000000837 0  226.6900000000077 66.68000000001001 0  226.1200000000024 65.94000000000314 0  225.5500000000108 65.20000000001409 0  224.9800000000098 64.46000000001268 0  224.4100000000007 63.72000000000098 0  223.8399999999971 62.97999999999621 0  223.2699999999993 62.23999999999915 0  222.753846153846 60.56923076923239 0  222.8076923076921 59.63846153846478 0  222.8615384615381 58.70769230769827 0  222.9153846153842 57.77692307693071 0  222.9692307692302 56.84615384616315 0  223.0230769230761 55.91538461539836 0  223.0769230769224 54.98461538462665 0  223.1307692307688 54.05384615385345 0  223.184615384615 53.12307692308312 0  223.2384615384611 52.19230769231556 0  223.2923076923071 51.26153846154906 0  223.3461538461533 50.33076923077847 0  222.8400000000024 48.62000000000327 0  222.2800000000047 47.84000000000661 0  221.7200000000005 47.06000000000071 0  221.1600000000003 46.28000000000039 0  221.4500000000116 45.87500000000512 0  222.3 46.25 0  223.1499999999884 46.62499999999488 0  223.5600000000055 46.22000000000981 0  223.1199999999987 45.43999999999767 0  222.6800000000061 44.66000000001075 0  222.2399999999969 43.8799999999944 0  221.6400000000004 42.16000000000253 0  221.4800000000009 41.22000000000548 0  221.3200000000014 40.28000000000801 0  221.1600000000009 39.34000000000556 0  220.25 38.45 0  219.4749999999999 39.30000000000165 0  219.45 40.09999999999999 0  219.425 40.90000000000112 0  219.0166666666641 40.89999999999463 0  218.6333333333375 40.10000000000875 0  218.2500000000016 39.30000000000339 0  217.8666666666635 38.49999999999351 0  217.483333333337 37.70000000000762 0  216.1750000000165 36.78750000000201 0  215.2500000000275 36.67500000000335 0  214.3250000000385 36.56250000000469 0  213.4000000000277 36.45000000000337 0  212.4750000000059 36.33750000000072 0  211.5499999999838 36.22499999999803 0  210.6249999999835 36.11249999999799 0  209.6600000000001 35.14000000000318 0  209.6200000000001 34.28000000000268 0  209.5800000000001 33.42000000000284 0  209.5399999999998 32.55999999999681 0  208.6200000000117 31.34000000000476 0  207.7400000000138 30.98000000000564 0  206.8600000000162 30.62000000000662 0  205.9800000000174 30.26000000000711 0  204.2000000000054 30.02499999999925 0  203.2999999999946 30.15000000000076 0  202.3999999999945 30.27500000000076 0  201.2444444444438 31.32222222222468 0  200.9888888888895 32.24444444
[...]
<PointData  Vectors="f_12"> 
<DataArray  type="Float64"  Name="f_12"  NumberOfComponents="3" format="ascii">5.1860604270865907e-01 7.8298498974395669e-02 2.9335500318998764e-01  5.1489399437792061e-01 7.9386954772419721e-02 2.7672132292399032e-01  5.1051216308047576e-01 8.1073064596451444e-02 2.5703920932312119e-01  5.0918727011125575e-01 8.1767399081238118e-02 2.5102274898347693e-01  5.0193233239553980e-01 8.6428328076489647e-02 2.1803841609539595e-01  4.9892365409433398e-01 8.9137746739844981e-02 2.0417202554574398e-01  4.9794317728515392e-01 9.0064687371318258e-02 1.9966371370499703e-01  4.9595626710931434e-01 9.2796025974594076e-02 1.9012711318638778e-01  4.9310302254413813e-01 9.6964240723197870e-02 1.7643668549338146e-01  4.9198579791780345e-01 9.9010578468317761e-02 1.7090351621918157e-01  4.8798653183091084e-01 1.0789786425573275e-01 1.5049671407130863e-01  4.8658041668846952e-01 1.1194037310782920e-01 1.4293230707880852e-01  4.8430473770173632e-01 1.2564412501204428e-01 1.2693754140899915e-01  5.0431622974610402e-01 2.9334029055341465e-01 9.4771874531774561e-02  5.6103621216526645e-01 5.1856016387435866e-01 1.1619999494906930e-01  6.3237381837689421e-01 7.0187226573193451e-01 1.5343488905285371e-01  6.5416315266780523e-01 7.3296461309719407e-01 1.7274688974412200e-01  7.0521157929166600e-01 7.7792230608601198e-01 2.2764010437915852e-01  7.0676880498562766e-01 7.8862597083221475e-01 2.1563546258525429e-01  7.2069901337926179e-01 7.6606188379568230e-01 2.7568358381559244e-01  7.1573861351464907e-01 7.7824544688161568e-01 2.4809673631481927e-01  7.1322433705061139e-01 7.8270103382911094e-01 2.3689120038219444e-01  6.7622708043956004e-01 5.2434873954391659e-01 5.0164163063640554e-01  5.7966588302543443e-01 1.5255397754596825e-01 5.2008985837174626e-01  5.3592149861351646e-01 2.1176392786939097e-01 2.8800029415458750e-01  5.9147986405463382e-01 1.3229252292177324e-01 5.9177308373118520e-01  6.0883340984234502e-01 1.5316855361564036e-01 6.4218427252537458e-01  6.5466305622634346e-01 1.8861931050872865e-01 7.8596228492247500e-01  6.5453691575900796e-01 1.8854310143358058e-01 7.8557033423705591e-01  6.3297712658567795e-01 1.7659116136605574e-01 7.1540267412737435e-01  7.0556106295474541e-01 2.9821845620494863e-01 8.3428400162981831e-01  7.4727596685341036e-01 4.8629481307534395e-01 7.1087657164818252e-01  7.7173057904305453e-01 6.6402828911747236e-01 5.0925450379166270e-01  7.7309387674810481e-01 7.0372583257459465e-01 4.5128091068341503e-01  7.7273128761903720e-01 7.0364730476349457e-01 4.5096795602877865e-01  7.4183369970576196e-01 4.8647303002385311e-01 7.0381571599299464e-01  6.6396292873213147e-01 2.8466196086440554e-01 7.1131065322151898e-01  5.3704348009917013e-01 3.0088520329194951e-01 2.1959265164630593e-01  5.9079819876978734e-01 4.4836324580983461e-01 2.9659145921448349e-01  6.2434830723528756e-01 5.3211630565985857e-01 3.3348384720638358e-01  7.1602056460152519e-01 6.5780281821161257e-01 4.2785746740736896e-01  7.1276107426307944e-01 6.5133531300077274e-01 4.2944264534397053e-01  6.6026748041285532e-01 5.8007984682970992e-01 3.8946603097893612e-01  6.7770438927006438e-01 5.9840191131567511e-01 4.1305843286096278e-01  7.2998512098176360e-01 6.8483666682694000e-01 4.1523518834160855e-01  7.2681894774209610e-01 7.4089735478408758e-01 3.2437853046973747e-01  6.7468369126678718e-01 7.5781926950074696e-01 1.9166843972171727e-01  6.6421675464860830e-01 7.4403436783846455e-01 1.8392634850888517e-01  6.1873155419593295e-01 6.7229512330359176e-01 1.4615026855420937e-01  5.7207196015827244e-01 5.6679202552901931e-01 1.1050626399371567e-01  5.4143393518653149e-01 4.6413973279304899e-01 9.6756298760344250e-02  5.1026156825654156e-01 3.3453937205751355e-01 8.7435955705940732e-02  4.9566440418096253e-01 2.5773932330425148e-01 8.8131601656037173e-02  4.8803238689225265e-01 2.1221079619313721e-01 9.0096995772639521e-02  4.8452331861708542e-01 1.8588713489995587e-01 9.3546451595024088e-02  4.8186259832495693e-01 1.5883134513933392e-01 9.9770231617592478e-02  4.8347395639309426e-01 1.5602498953007757e-01 1.0700029533049785e-01  4.8620684266370179e-01 1.1748982993967563e-01 1.3852192275537492e-01  4.8711559822011674e-01 1.1099483903648127e-01 1.4549841731912325e-01  4.9042138633805665e-01 1.0146060232127234e-01 1.6342619796636051e-01  4.9526426712080190e-01 9.3021106655572477e-02 1.8719280153305520e-01  4.9589411127559319e-01 9.2155896942693299e-02 1.9019911081214241e-01  4.9610703328415967e-01 9.1939118674474324e-02 1.9117692938535197e-01  4.9696712589596631e-01 9.1025843319893190e-02 1.9515809317107785e-01  4.9834518970186265e-01 8.9544636625657759e-02 2.0157217770413466e-01  5.0198242404691540e-01 8.6366831791281351e-02 2.1826698217722301e-01  5.0454559018646827e-01 8.4412446886356587e-02 2.3000730324329224e-01  5.0537059166918796e-01 8.3809677858576404e-02 2.3379313847284677e-01  5.0588061183148658e-01 8.3471366117664050e-02 2.3612081301416907e-01  5.0684825349173490e-01 8.2870678427052577e-02 2.4052193516029102e-01  5.0662284616047248e-01 8.2990803364727306e-02 2.3950677546920668e-01  5.0834282076804105e-01 8.2035302132997229e-02 2.4729248238203491e-01  5.1180591340340054e-01 8.0452482841304476e-02 2.6289004419511180e-01  5.1233525956440851e-01 8.0212772433527244e-02 2.6528694413422171e-01  5.0913587925477710e-01 8.1690439116832492e-02 2.5084021470124285e-01  5.1369016746091445e-01 7.9815087415426061e-02 2.7130874614042366e-01  5.1600039122153030e-01 7.9066531545975788e-02 2.8165906313739986e-01  5.1700482072602749e-01 7.8749673551342200e-02 2.8617137669311382e-01  5.1829418348191525e-01 7.8381505732065412e-02 2.9195740903694661e-01  5.1847111562486059e-01 7.8333594031860340e-02 2.9275070693549499e-01  5.1858947203436467e-01 7.8302828911036002e-02 2.9328076764748245e-01  5.1855281626496330e-01 7.8312366317265111e-02 2.9311658494569454e-01  5.1850963328642685e-01 7.8323566670319658e-02 2.9292320332918159e-01  5.1837558859201438e-01 7.8358797426792623e-02 2.9232276725247358e-01  5.1820283048539550e-01 7.8404769298117044e-02 2.9154881216613449e-01  5.1797500339787905e-01 7.8466114428014613e-02 2.9052813186312682e-01  5.1770150649725177e-01 7.8540873156292754e-02 2.8930283357835396e-01  5.1738741406633282e-01 7.8628239057196680e-02 2.8789564862357964e-01  5.1703914079929036e-01 7.8727063744528356e-02 2.8633532578034437e-01  5.1665833645793036e-01 7.8837613879504692e-02 2.8462915002558481e-01  5.1625087814555037e-01 7.8958888263428825e-02 2.8280337439272207e-01  5.1582202083477457e-01 7.9090068136890471e-02 2.8088145423991467e-01  5.1537046616236803e-01 7.9232298297443854e-02 2.7885742987651202e-01  5.1444246419277428e-01 7.9537735628689002e-02 2.7469671612479690e-01  5.1400234132372757e-01 7.9689023028110775e-02 2.7272285479981173e-01  5.1356514256945129e-01 7.9843855815382545e-02 2.7076154275483966e-01  5.1313234733941293e-01 8.0001718805143354e-02 2.6881938661550431e-01  5.1270769062842203e-01 8.0161213497633596e-02 2.6691314301737634e-01  5.1229542142252282e-01 8.0320475897523752e-02 2.6506191922556088e-01  5.1189764001066174e-01 8.0478635136866872e-02 2.6327500071990761e-01  5.1152136665464709e-01 8.0632566377902323e-02 2.6158385310413323e-01  5.1117612693931680e-01 8.0777967863375516e-02 2.6003115379034264e-01  5.1087393196837816e-01 8.0909127917571308e-02 2.5867077297077012e-01  5.1063686091993865e-01 8.1015324555339732e-02 2.5760220240387871e-01  5.1039470571406709e-01 8.1132629991492011e-02 2.5650598262106139e-01  5.1014190046907992e-01 8.1263158596377769e-02 2.5535759507382161e-01  5.0976412268258986e-01 8.1461086911687214e-02 2.5364159507962325e-01  5.0843723066618918e-01 8.2172644297386729e-02 2.4761993152470999e-01  5.0777095794580362e-01 8.2541920760953458e-02 2.4459852128956344e-01  5.0712949658511886e-01 8.2908062401102420e-02 2.4168994820384396e-01  5.0650373330379150e-01 8.3276859979849530e-02 2.3885185758147207e-01  5.0589335915399736e-01 8.3648916458709324e-02 2.3608212381122465e-01  5.0530010607690801e-01 8.4023136383891181e-02 2.3338820288026665e-01  5.0472651761462906e-01 8.4397503357552167e-02 2.3078147525917847e-01  5.0417490557170463e-01 8.4769669824952265e-02 2.2827241751865845e-01  5.0364925164489227e-01 8.5136229968468313e-02 2.2587910090269520e-01  5.0315165184807420e-01 8.5494777483004575e-02 2.2361096096510674e-01  5.0268903622342453e-01 8.5838855699355399e-02 2.2149967295290771e-01  5.0227017220748160e-01 8.6160495834236309e-02 2.1958521753846280e-01  5.0161838196790398e-01 8.6687108103323626e-02 2.1659741609380204e-01  5.0125445388916123e-01 8.6995796812266629e-02 2.1492420279733218e-01  5.0087072016165746e-01 8.7329931013377965e-02 2.1315748635021839e-01  5.0048149352891225e-01 8.7677338648114819e-02 2.1136334568269416e-01  5.0009274463688802e-01 8.8032186140034593e-02 2.0956981290930018e-01  4.9970788208538586e-01 8.8390389012033901e-02 2.0779319700146481e-01  4.9932480877534163e-01 8.8753043743383511e-02 2.0602428949063900e-01  4.9859198437939872e-01 8.9455313136875159e-02 2.0264280231442464e-01  4.9835874418261966e-01 8.9679350795798862e-02 2.0156826259530947e-01  4.9819509039994436e-01 8.9835220245036457e-02 2.0081567756422877e-01  4.9807994645253451e-01 8.9943787406844000e-02 2.0028706715285283e-01  4.9800603482088007e-01 9.0011825524031350e-02 1.9994874560823153e-01  4.9796431345706099e-01 9.0048574556740632e-02 1.9975867796058491e-01  4.9794647904829681e-01 9.0062783453164430e-02 1.9967822526990922e-01  4.9794045364280426e-01 9.0069748133452268e-02 1.9964989914863698e-01  4.9792383647898658e-01 9.0094921743262765e-02 1.9956861650875674e-01  4.9788320732560065e-01 9.0152153435830745e-02 1.9937213635684586e-01  4.9781260057516097e-01 9.0249421510335798e-02 1.9903182060010377e-01  4.9770302763657204e-01 9.0398681945506654e-02 1.9850463790136158e-01  4.9754694418829482e-01 9.0610751999562367e-02 1.9775424329160421e-01  4.9733589803353073e-01 9.0898513679096432e-02 1.9673987135922902e-01  4.9705323849717858e-01 9.1285547910242196e-02 1.9538226620991844e-01  4.9665460344770673e-01 9.1833157914824395e-02 1.9347045209530750e-01  4.9510894960807189e-01 9.3976882708133563e-02 1.8607450391984545e-01  4.9451100082597771e-01 9.4828194384103601e-02 1.8321313530936043e-01  4.9401179052978517e-01 9.5557813430529603e-02 1.8082060666101935e-01  4.9359979111356667e-01 9.6178575456887933e-02 1.7884021855722501e-01  4.9328170740459504e-01 9.6673923491655683e-02 1.7730482581623652e-01  4.9300252872667727e-01 9.7139785751777230e-02 1.7594242355417736e-01  4.9279333052627727e-01 9.7513576632987181e-02 1.7490982343071548e-01  4.9248392867143709e-01 9.8079743896000882e-02 1.7337738622957283e-01  4.9129470061763625e-01 1.0034041743881057e-01 1.6745784550136644e-01  4.9076447157766068e-01 1.0140131902018858e-01 1.6479943258710425e-01  4.9028652156568708e-01 1.0239697316168848e-01 1.6238848103974268e-01  4.8983498290678723e-01 1.0337845234385462e-01 1.6009474646995972e-01  4.8939736320204197e-01 1.0437348874325185e-01 1.5785382453412272e-01  4.8896242472092261e-01 1.0540834363532431e-01 1.5560750843949767e-01  4.8851274133881872e-01 1.0652776398602633e-01 1.5326425884248662e-01  4.8750182861306934e-01 1.0920913465001969e-01 1.4792673614696719e-01  4.8716020132797183e-01 1.1016959437871947e-01 1.4609977056850687e-01  4.8689471525305750e-01 1.1094858608835753e-01 1.4466511980757041e-01  4.8669525010491849e-01 1.1156350211660027e-01 1.4357281598930360e-01  4.8647680320408498e-01 1.1232775646244683e-01 1.4232964831203374e-01  4.8630467250811354e-01 1.1301561513804873e-01 1.4130529495960650e-01  4.8609129950115998e-01 1.1392553833110905e-01 1.4000567876605446e-01  4.8584727479075585e-01 1.1504396682571022e-01 1.3847879721994336e-01  4.8558473866634172e-01 1.1635332529726190e-01 1.3678039592546012e-01  4.8531023647718102e-01 1.1786133120583750e-01 1.3493109930661296e-01  4.8503233708622839e-01 1.1957274966016702e-01 1.3296028028547693e-01  4.8476185455768295e-01 1.2148116764518305e-01 1.3091121539792896e-01  4.8451172623202748e-01 1.2355608573349958e-01 1.2884784362967414e-01  4.8410709326830798e-01 1.2831681727610103e-01 1.2474016710204509e-01  4.8393126737857534e-01 1.3178711174187724e-01 1.2218031447630494e-01  4.8381333480488736e-01 1.3594740291731006e-01 1.1944307854053277e-01  4.8378518264514747e-01 1.4088682441634151e-01 1.1658607139501231e-01  4.8387683290933053e-01 1.4665522377991691e-01 1.1367827939953304e-01  4.8412400315486037e-01 1.5333963893004521e-01 1.1078379729058105e-01  4.8456595778469302e-01 1.6105423937546862e-01 1.0795827320382075e-01  4.8524331829400230e-01 1.6990053668381794e-01 1.0526321142738322e-01  4.8619406747357291e-01 1.7995193132639031e-01 1.0276141675484451e-01  4.8746826733326454e-01 1.9136144814692516e-01 1.0050410247596739e-01  4.8910562566896232e-01 2.0421227213713433e-01 9.8541567679747477e-02  4.9114164843593000e-01 2.1855438762638305e-01 9.6923195493373790e-02  4.9363987158182127e-01 2.3459522676061081e-01 9.5690600721949889e-02  4.9662856851397441e-01 2.5228072255003026e-01 9.4909114661217056e-02  5.0017158126930961e-01 2.7183581484497876e-01 9.4592650372624695e-02  5.0876300835821286e-01 3.1513897208399805e-01 9.5437591918367037e-02  5.1370092343681617e-01 3.3810970359686271e-01 9.6596604552893636e-02  5.1916707665363371e-01 3.6232567840048813e-01 9.8247811366318952e-02  5.2528413128135110e-01 3.8807081667669574e-01 1.0045549647615955e-01  5.3205687256537637e-01 4.1521739397927154e-01 1.0317949206751502e-01  5.3971236198710215e-01 4.4437607783612071e-01 1.0648572106998100e-01  5.4877337510642099e-01 4.7700823465247200e-01 1.1056244545120895e-01  5.7408041857088432e-01 5.5977677978476459e-01 1.2236398857843254e-01  5.8425297754546623e-01 5.8974865361054862e-01 1.2719418367271609e-01  5.9329152443047573e-01 6.1462917669980943e-01 1.3150734897180616e-01  6.0159528062253886e-01 6.3600133839182804e-01 1.3555228495743613e-01  6.0929201203898209e-01 6.5451498523085649e-01 1.3946123978802558e-01  6.1639200560039109e-01 6.7043641262208775e-01 1.4330482127800251e-01  6.2282701822621167e-01 6.8386508243963817e-01 1.4707957968051458e-01  6.2839076661610371e-01 6.9466870264667346e-01 1.5064426142240592e-01  6.3556895806638813e-01 7.0709305116404342e-01 1.5596780905922372e-01  6.4034934446566238e-01 7.1439435229932990e-01 1.6000527467448544e-01  6.4626049393102258e-01 7.2273132516206162e-01 1.6530497088710522e-01  6.6292322524959901e-01 7.4331440645883085e-01 1.8133448845371122e-01  6.7016958555908557e-01 7.5105637640546685e-01 1.8870952474143649e-01  6.7673798187213330e-01 7.5738484875330325e-01 1.9561586709544568e-01  6.8285962574591264e-01 7.6270980538181166e-01 2.0223410184932336e-01  6.8862742033647972e-01 7.6723962170784343e-01 2.0861800999655394e-01  6.9409236532059726e-01 7.7109413354372913e-01 2.1481611530941297e-01  6.9939035305379282e-01 7.7447542029093086e-01 2.2092998504449815e-01  7.0986657305014400e-01 7.8075860454422430e-01 2.3263306883076987e-01  7.1246084771494822e-01 7.8250654606280756e-01 2.3505561592323213e-01  7.1398037551489490e-01 7.8376571018086771e-01 2.3607913490058560e-01  7.1471537006937425e-01 7.8472511625603147e-01 2.3604480020906854e-01  7.1483947259278813e-01 7.8548251720084605e-01 2.3516729657751353e-01  7.1448646694548001e-01 7.8609696482834868e-01 2.3362122955637649e-01  7.1376496496415998e-01 7.8660860738207161e-01 2.3155026826269551e-01  7.1277781869104240e-01 7.8704595296537438e-01 2.2909868993461477e-01  7.1163587336553513e-01 7.8742324277871389e-01 2.2644518098317185e-01  7.1043830617252945e-01 7.8775182311977543e-01 2.2375247939248896e-01  7.0928954450778225e-01 7.8803119185316983e-01 2.2121363455054324e-01  7.0827791005696616e-01 7.8826354527976417e-01 2.1899047603578256e-01  7.0748569166325204e-01 7.8844352204854251e-01 2.1724724304367712e-01  7.0698180384373255e-01 7.8855821009802263e-01 2.1613572458176605e-01  7.0707555941602540e-01 7.8840747195091632e-01 2.1654319535855737e-01  7.0792126037590297e-01 7.8774198494647196e-01 2.1913904727145481e-01  7.0929029605150329e-01 7.8653498830003987e-01 2.2353008921437217e-01  7.1111950733094753e-01 7.8466875682322124e-01 2.2976818579433475e-01  7.1331514009332997e-01 7.8197491186014345e-01 2.3793190844507311e-01  7.1749962867313155e-01 7.7444765181708652e-01 2.5711008499642352e-01  7.1572675344329229e-01 7.7830800129110644e-01 2.4804136495202403e-01  7.1465356876966979e-01 7.8034036537670792e-01 2.4303260780416006e-01  7.1391448084341602e-01 7.8160693866846687e-01 2.3978774485488391e-01  7.1344986106119457e-01 7.8235232146279932e-01 2.3782463005034776e-01  7.1349508770917247e-01 7.8228195349606999e-01 2.3801246345256674e-01  7.1410817784416947e-01 7.8129230726650223e-01 2.4061140937780981e-01  7.1500442776197648e-01 7.7973271481034112e-01 2.4457514455531124e-01  7.2434043728438524e-01 7.5222952354219452e-01 3.0340237202669817e-01  7.2644463933181458e-01 7.3818645334989053e-01 3.2862498296960391e-01  7.2731427673550397e-01 7.2205129607955720e-01 3.5464992072042023e-01  7.2680832001850659e-01 7.0324238659884053e-01 3.8186560144573167e-01  7.2467855180421870e-01 6.8148107121612922e-01 4.0981679535078563e-01  7.2067873237439262e-01 6.5676808989733482e-01 4.3739934204921016e-01  7.1451332935153400e-01 6.2921675723862791e-01 4.6292429325378953e-01  7.0581158397908161e-01 5.9893377386786151e-01 4.8415219921560898e-01  6.9390650012450705e-01 5.6542632951263760e-01 4.9835766616142135e-01  6.5621642209465481e-01 4.8507355644738992e-01 4.8905341323797252e-01  6.3934754530756777e-01 4.5568402226519195e-01 4.6803031443502124e-01  6.2349043740145316e-01 4.2974275388374988e-01 4.4142778948999489e-01  6.0848897985315908e-01 4.0541747233385300e-01 4.1187807648129010e-01  5.9436102735346696e-01 3.8140298218646373e-01 3.8186142465137529e-01  5.8130108114774504e-01 3.5709624411469776e-01 3.5354209848643897e-01  5.6951569481363218e-01 3.3234036253307475e-01 3.2861003701045982e-01  5.5922677904264073e-01 3.0744561464272147e-01 3.0827823387151027e-01  5.5063901499361478e-01 2.8307541882931836e-01 2.9330042082735913e-01  5.4395369484742262e-01 2.6016871886752363e-01 2.8411892147608836e-01  5.3929312160258724e-01 2.3970856531251475e-01 2.8079320142998732e-01  5.3667950746455118e-01 2.2276727995384832e-01 2.8287827245524194e-01  5.3706163442110699e-01 2.0174959913761031e-01 3.0026036292792613e-01  5.4065684206296172e-01 1.8956978541190500e-01 3.2445554565819562e-01  5.4744903851971061e-01 1.7741230845962763e-01 3.6230858551963119e-01  5.5878019354504527e-01 1.6572472025927690e-01 4.1962725664079598e-01  5.8943495206641772e-01 1.4196861420723611e-01 5.7264454160998268e-01  5.9132245294012342e-01 1.3643723576930844e-01 5.8665173541843629e-01  5.9151190244010288e-01 1.3342518842298337e-01 5.9070083362793013e-01  5.9151496982652363e-01 1.3336171068105004e-01 5.9078233681134495e-01  5.9188977954079458e-01 1.3599565501716243e-01 5.8955766568116963e-01  5.9366959675864206e-01 1.4015177326354281e-01 5.9264077348919064e-01  5.9881279869672788e-01 1.4566290284159589e-01 6.0839503198639766e-01  6.2238556869501893e-01 1.6256648731571854e-01 6.8780659295257829e-01  6.3476110524712248e-01 1.7186191211676299e-01 7.2741802050189774e-01  6.4500233859121026e-01 1.8011888940928411e-01 7.5847176060288390e-01  6.5203229899571080e-01 1.8622415933380215e-01 7.7866382260390266e-01  6.5444756464877374e-01 1.8844611185884808e-01 7.8533772757347275e-01  6.5266485022646448e-01 1.8690762133982192e-01 7.8031376722648138e-01  6.4777032944584412e-01 1.8290699929137541e-01 7.6611743401383814e-01  6.4081313222810743e-01 1.7836798539215881e-01 7.4432619194800853e-01  6.4768731735895224e-01 1.9830796395520514e-01 7.4882922659026863e-01  6.6305296439729278e-01 2.2092150263969668e-01 7.8076868892328477e-01  6.7781781077034087e-01 2.4492957789280581e-01 8.0571408290078506e-01  6.9070625077281056e-01 2.6817277220900787e-01 8.2223157512878131e-01  7.0052765468089240e-01 2.8752272852090860e-01 8.3120131888892967e-01  7.0865612924131671e-01 3.0621124647257331e-01 8.3418812210395510e-01  7.1274882454790489e-01 3.1826846718759488e-01 8.3203304537195955e-01  7.1708386052