<?xml version="1.0"?>
<VTKFile type="UnstructuredGrid"  version="0.1"  >
<UnstructuredGrid>
<Piece  NumberOfPoints="7288" NumberOfCells="14083">
<Points>
<DataArray  type="Float64"  NumberOfComponents="3"  format="ascii">239.8 188 0  250.2 180 0  258.2 172.4 0  257 169.4 0  259.9 157.4 0  258.7 150.3 0  261 143.5 0  251.7 144.4 0  250 138.7 0  247 138.1 0  245.2 130.8 0  247.3 126.4 0  242.7 118.6 0  231.2 107.7 0  226 102.4 0  226.5 93.90000000000001 0  224.5 91.19999999999999 0  224.5 84.09999999999999 0  234.5 73.80000000000001 0  228.4 68.90000000000001 0  230 70 0  233.4 68 0  222.7 61.5 0  220.6 45.5 0  223.4 49.40000000000001 0  224 47 0  221.8 43.09999999999999 0  221 38.40000000000001 0  219.5 38.5 0  219.4 41.69999999999999 0  217.1 36.90000000000001 0  209.7 36 0  209.5 31.69999999999999 0  205.1 29.90000000000001 0  201.5 30.40000000000001 0  199.2 38.69999999999999 0  201.8 41.40000000000001 0  194.8 53.80000000000001 0  196.1 57.69999999999999 0  193 59 0  191.4 66.09999999999999 0  193.5 66.5 0  194.1 64.40000000000001 0  195.6 64.69999999999999 0  195.4 72.40000000000001 0  199.5 77.30000000000001 0  197.7 86.90000000000001 0  200.6 87.5 0  201.5 91 0  198 94.80000000000001 0  198.6 100 0  197.3 105.4 0  198 109.5 0  197 112.7 0  198.3 116.1 0  201.3 122 0  207.2 121 0  208.1 126.7 0  205.6 127.9 0  209.1 134.9 0  210.9 144.4 0  210.1 147.9 0  213 148.4 0  215.4 149.3 0  215.1 152.8 0  219.9 159.7 0  220.3 163.2 0  218.7 164.9 0  219.9 166.7 0  221.9 169.7 0  220 170.3 0  224.9 174.7 0  229.8 177.4 0  229.7 181 0  228 172.9 0  239 178 0  240.4 180 0  239 181.5 0  241.2 185.9 0  242.95 187.99 0  240.5875 187.9975 0  241.375 187.995 0  242.1625 187.9925 0  243.6090909090879 187.2636363636397 0  244.2681818181765 186.5372727272785 0  244.9272727272692 185.810909090913 0  245.5863636363531 185.0845454545571 0  246.245454545445 184.3581818181923 0  246.9045454545351 183.6318181818295 0  247.5636363636303 182.9054545454612 0  248.2227272727197 182.1790909090992 0  248.8818181818179 181.4527272727275 0  249.5409090909066 180.7263636363664 0  250.8666666666961 179.3666666666387 0  251.5333333334033 178.7333333332668 0  252.2000000000994 178.0999999999055 0  252.8666666668011 177.466666666539 0  253.5333333335083 176.8333333331671 0  254.2000000002044 176.1999999998058 0  254.8666666669005 175.5666666664445 0  255.5333333336077 174.9333333330727 0  256.2000000002685 174.2999999997449 0  256.8666666668457 173.6666666664966 0  257.5333333334283 173.033333333243 0  257.9000000000077 171.6500000000191 0  257.6000000000015 170.9000000000038 0  257.2999999999954 170.1499999999885 0  257.2230769230778 168.4769230769195 0  257.4461538461543 167.5538461538442 0  257.6692307692309 166.6307692307688 0  257.8923076923074 165.7076923076935 0  258.115384615384 164.7846153846181 0  258.3384615384605 163.8615384615427 0  258.5615384615395 162.9384615384572 0  258.784615384616 162.0153846153819 0  259.0076923076926 161.0923076923065 0  259.2307692307691 160.1692307692311 0  259.4538461538457 159.2461538461558 0  259.6769230769222 158.3230769230804 0  259.750000000001 156.512500000006 0  259.6000000000014 155.6250000000082 0  259.4500000000029 154.7375000000176 0  259.3000000000018 153.8500000000108 0  259.1500000000007 152.962500000004 0  259.0000000000004 152.0750000000026 0  258.849999999999 151.187499999994 0  258.9875000000052 149.4499999999846 0  259.275000000002 148.5999999999941 0  259.5624999999954 147.7500000000135 0  259.849999999995 146.900000000015 0  260.1374999999945 146.0500000000164 0  260.4249999999913 145.2000000000259 0  260.7124999999948 144.3500000000154 0  260.0700000000398 143.5899999999961 0  259.1400000000573 143.6799999999944 0  258.2100000000351 143.7699999999966 0  257.2800000000262 143.8599999999975 0  256.350000000011 143.9499999999989 0  255.4199999999881 144.0400000000011 0  254.4899999999726 144.1300000000026 0  253.5599999999944 144.2200000000005 0  252.6300000000009 144.3099999999999 0  251.4166666666658 143.4499999999971 0  251.1333333333388 142.5000000000182 0  250.8500000000015 141.5500000000051 0  250.5666666666612 140.5999999999818 0  250.2833333333342 139.6500000000029 0  249.2500000000005 138.5500000000001 0  248.5000000000011 138.4000000000002 0  247.7499999999995 138.2499999999999 0  246.7750000000005 137.1875000000023 0  246.5500000000021 136.2750000000085 0  246.3250000000036 135.3625000000147 0  246.1000000000042 134.450000000017 0  245.8750000000022 133.5375000000088 0  245.650000000003 132.6250000000124 0  245.4250000000046 131.7125000000187 0  245.619999999996 129.9200000000084 0  246.0399999999992 129.0400000000017 0  246.4599999999987 128.1600000000028 0  246.8800000000001 127.2799999999997 0  246.8399999999988 125.6199999999979 0  246.3799999999984 124.8399999999973 0  245.9199999999991 124.0599999999985 0  245.4600000000036 123.2800000000062 0  245.0000000000049 122.5000000000082 0  244.5400000000036 121.7200000000062 0  244.0800000000033 120.9400000000056 0  243.6200000000016 120.1600000000027 0  243.1600000000012 119.3800000000021 0  241.9812499999996 117.9187499999997 0  241.2625000000007 117.2375000000007 0  240.5437500000017 116.5562500000017 0  239.8250000000041 115.875000000004 0  239.1062500000066 115.1937500000063 0  238.3875000000076 114.5125000000072 0  237.6687500000087 113.8312500000082 0  236.9500000000083 113.1500000000079 0  236.231250000008 112.4687500000076 0  235.512500000009 111.7875000000085 0  234.7937500000045 111.1062500000043 0  234.0750000000042 110.4250000000039 0  233.3562500000066 109.7437500000062 0  232.6375000000021 109.062500000002 0  231.9187500000031 108.381250000003 0  230.5500000000004 107.0375000000004 0  229.9000000000021 106.3750000000021 0  229.2500000000038 105.7125000000039 0  228.6000000000041 105.0500000000042 0  227.9500000000018 104.3875000000018 0  227.2999999999952 103.7249999999951 0  226.6500000000024 103.0625000000024 0  226.0555555555555 101.4555555555556 0  226.1111111111111 100.5111111111111 0  226.1666666666667 99.56666666666668 0  226.2222222222222 98.62222222222223 0  226.2777777777778 97.67777777777778 0  226.3333333333333 96.73333333333335 0  226.3888888888889 95.78888888888889 0  226.4444444444445 94.84444444444446 0  226 93.22499999999999 0  225.5000000000026 92.55000000000358 0  225.0000000000026 91.87500000000358 0  224.5 90.31250000000068 0  224.5 89.4250000000097 0  224.5 88.53750000001317 0  224.5 87.65000000001388 0  224.5 86.76250000001457 0  224.5 85.87500000001248 0  224.5 84.9874999999993 0  225.1666666666659 83.41333333333409 0  225.8333333333319 82.72666666666818 0  226.4999999999978 82.04000000000228 0  227.1666666666649 81.35333333333514 0  227.8333333333301 80.66666666667 0  228.4999999999942 79.980000000006 0  229.1666666666601 79.2933333333401 0  229.8333333333316 78.60666666666847 0  230.4999999999975 77.92000000000257 0  231.1666666666644 77.23333333333572 0  231.8333333333295 76.54666666667057 0  232.4999999999972 75.86000000000287 0  233.1666666666681 75.17333333333181 0  233.8333333333368 74.48666666666306 0  233.7499999999995 73.16666666666629 0  233.0000000000018 72.53333333333488 0  232.2500000000014 71.90000000000116 0  231.5000000000009 71.26666666666743 0  230.7500000000005 70.63333333333372 0  229.233333333333 68.75000000000006 0  230.0666666666665 68.60000000000004 0  230.8999999999995 68.45000000000009 0  231.7333333333325 68.30000000000015 0  232.566666666667 68.14999999999995 0  232.5499999999897 68.50000000000607 0  231.7 69 0  230.8500000000103 69.49999999999393 0  227.8300000000008 68.16000000000106 0  227.2600000000064 67.42000000000837 0  226.6900000000077 66.68000000001001 0  226.1200000000024 65.94000000000314 0  225.5500000000108 65.20000000001409 0  224.9800000000098 64.46000000001268 0  224.4100000000007 63.72000000000098 0  223.8399999999971 62.97999999999621 0  223.2699999999993 62.23999999999915 0  222.753846153846 60.56923076923239 0  222.8076923076921 59.63846153846478 0  222.8615384615381 58.70769230769827 0  222.9153846153842 57.77692307693071 0  222.9692307692302 56.84615384616315 0  223.0230769230761 55.91538461539836 0  223.0769230769224 54.98461538462665 0  223.1307692307688 54.05384615385345 0  223.184615384615 53.12307692308312 0  223.2384615384611 52.19230769231556 0  223.2923076923071 51.26153846154906 0  223.3461538461533 50.33076923077847 0  222.8400000000024 48.62000000000327 0  222.2800000000047 47.84000000000661 0  221.7200000000005 47.06000000000071 0  221.1600000000003 46.28000000000039 0  221.4500000000116 45.87500000000512 0  222.3 46.25 0  223.1499999999884 46.62499999999488 0  223.5600000000055 46.22000000000981 0  223.1199999999987 45.43999999999767 0  222.6800000000061 44.66000000001075 0  222.2399999999969 43.8799999999944 0  221.6400000000004 42.16000000000253 0  221.4800000000009 41.22000000000548 0  221.3200000000014 40.28000000000801 0  221.1600000000009 39.34000000000556 0  220.25 38.45 0  219.4749999999999 39.30000000000165 0  219.45 40.09999999999999 0  219.425 40.90000000000112 0  219.0166666666641 40.89999999999463 0  218.6333333333375 40.10000000000875 0  218.2500000000016 39.30000000000339 0  217.8666666666635 38.49999999999351 0  217.483333333337 37.70000000000762 0  216.1750000000165 36.78750000000201 0  215.2500000000275 36.67500000000335 0  214.3250000000385 36.56250000000469 0  213.4000000000277 36.45000000000337 0  212.4750000000059 36.33750000000072 0  211.5499999999838 36.22499999999803 0  210.6249999999835 36.11249999999799 0  209.6600000000001 35.14000000000318 0  209.6200000000001 34.28000000000268 0  209.5800000000001 33.42000000000284 0  209.5399999999998 32.55999999999681 0  208.6200000000117 31.34000000000476 0  207.7400000000138 30.98000000000564 0  206.8600000000162 30.62000000000662 0  205.9800000000174 30.26000000000711 0  204.2000000000054 30.02499999999925 0  203.2999999999946 30.15000000000076 0  202.3999999999945 30.27500000000076 0  201.2444444444438 31.32222222222468 0  200.9888888888895 32.24444444
[...]
<PointData  Vectors="f_12"> 
<DataArray  type="Float64"  Name="f_12"  NumberOfComponents="3" format="ascii">7.0615674951738527e-01 3.0518673962099513e-01 8.3207009803896326e-01  5.6528895869957940e-01 1.1409790131179767e-01 4.8933377824858071e-01  5.1245195348578165e-01 1.0514462470773135e-01 2.5782149390232678e-01  5.0528777945928671e-01 1.2425568888776532e-01 2.1492563899727687e-01  4.8916626854384332e-01 1.9795817828070139e-01 1.0384704244337530e-01  4.9283324935173517e-01 2.3425632826575285e-01 9.4154066789263302e-02  4.9082198205678579e-01 2.2924067071014323e-01 9.0225071787202765e-02  5.0721641904071357e-01 2.7948981633191078e-01 1.1667359071289905e-01  5.0703151699728688e-01 2.2324780556852189e-01 1.5618062603529090e-01  5.1241014366642657e-01 1.8804668541778813e-01 2.0274293357351533e-01  6.1085778114746125e-01 1.5720728070252829e-01 6.3183949584936938e-01  7.0814368677335382e-01 2.8225449638086936e-01 8.4884138047585134e-01  7.7190968503897750e-01 4.7128800789673853e-01 7.6663278497972576e-01  7.8191082251050648e-01 6.4892253610921613e-01 5.4293643838637262e-01  7.3955438167424670e-01 7.0254519999443721e-01 4.0165671269055647e-01  6.5648791452434907e-01 6.7833754440288174e-01 2.5052207865039916e-01  6.1346520763586454e-01 6.0488975970433989e-01 2.0525069859483897e-01  5.1018261091859318e-01 2.9937790045562734e-01 1.1081469036314610e-01  4.8198211835981059e-01 1.5577854508634173e-01 1.0203511973049945e-01  4.8589061862127214e-01 1.9314589336101626e-01 9.4112079191781411e-02  4.8448059375156549e-01 1.8063169069293583e-01 9.6548709699923629e-02  4.8419311137237930e-01 1.8054165696588906e-01 9.5642308706390775e-02  4.9169479550947165e-01 2.4874103809120765e-01 8.0440365057659544e-02  4.8405986211683039e-01 1.9367725319278342e-01 8.7358839766662338e-02  4.8591957545577674e-01 2.1023096068986830e-01 8.4032894751281978e-02  4.8352179074724483e-01 1.8892757293199433e-01 8.8267327997367570e-02  4.8349351358638221e-01 1.8841019738484718e-01 8.8466951874147381e-02  4.8305973725052598e-01 1.8411306091627885e-01 8.9449118811960937e-02  4.8306145425316144e-01 1.8412934753738819e-01 8.9445663334003819e-02  4.8335082922105860e-01 1.8688323763043718e-01 8.8856209910870773e-02  4.8308544226817329e-01 1.8379209908318192e-01 8.9720571428422019e-02  4.8302424945015876e-01 1.8188193096817187e-01 9.0599913852452724e-02  4.8270888961773523e-01 1.7776628962368121e-01 9.1863130658926692e-02  4.8265276496739162e-01 1.7696686629264388e-01 9.2124799862657578e-02  4.8267068340759833e-01 1.7716022043304294e-01 9.2076623404207081e-02  4.8330742522330178e-01 1.8433427572879724e-01 9.0164988868114179e-02  4.8436040189414081e-01 1.9442160392342228e-01 8.7941778418393679e-02  4.9193848296952802e-01 2.5342888324438806e-01 7.8306762424676504e-02  4.9482042357558687e-01 2.7108828625738518e-01 7.6982361038031896e-02  4.9655648520154727e-01 2.8163183786990320e-01 7.6157808992060594e-02  5.0152947246837787e-01 3.0826038419746921e-01 7.5658524737620345e-02  5.0127964047413454e-01 3.0683842150048074e-01 7.5750239952869558e-02  4.9834860231753564e-01 2.9144471497829449e-01 7.5893989262216702e-02  4.9924018319497648e-01 2.9606503636032622e-01 7.5902816356974878e-02  5.0132538906488744e-01 3.0510086841521683e-01 7.7055052460710705e-02  4.9487712559994756e-01 2.6273330151771607e-01 8.2461716900981835e-02  4.8579585002172532e-01 2.0736720028372943e-01 8.5560999236409349e-02  4.9005782458688302e-01 2.2963153692056884e-01 8.6587172989746913e-02  5.0881124233960984e-01 3.2177436995500852e-01 9.1172073781380245e-02  5.2471736885657816e-01 4.0110632243682337e-01 8.9518134407928857e-02  5.5216263778627306e-01 5.0085298586310789e-01 1.0297478185152641e-01  5.8511399109014040e-01 6.0169957189513645e-01 1.1965067188097758e-01  6.1536889290676533e-01 6.6700873469753941e-01 1.4470487333670742e-01  6.3498919873983128e-01 7.0068193920586641e-01 1.6318367610077231e-01  6.5791249676730534e-01 7.2215993849501425e-01 1.9795906717389139e-01  6.9636703236311537e-01 7.2537717700478521e-01 2.8714152032372198e-01  7.3350536000478717e-01 5.9236397144452191e-01 5.4773331098748634e-01  7.2083291972915009e-01 3.3931713533020436e-01 8.2655129413908457e-01  7.1482542444943820e-01 3.0834900864664572e-01 8.4464875920651594e-01  6.1075744319875158e-01 1.4070112519153369e-01 6.5162493624322448e-01  5.0972717456283134e-01 9.7708315683990826e-02 2.4815931564386468e-01  5.0311126216564928e-01 9.9287513890367537e-02 2.1900881074922490e-01  5.0049063596994103e-01 1.0853918580725386e-01 2.0256645159120812e-01  4.9378206804934083e-01 1.3421038041214470e-01 1.6013813526522810e-01  4.8769930664533606e-01 1.5254466275381356e-01 1.2558940999519133e-01  4.8841575913731983e-01 1.7356525405245526e-01 1.1550358810926112e-01  4.8881646729637956e-01 1.4342994948994969e-01 1.3477891741201156e-01  4.8875399292882088e-01 1.2734768534128205e-01 1.4385719459544741e-01  4.8936872367819406e-01 1.2085653997262669e-01 1.4996169211303115e-01  4.9075319715566634e-01 1.1182001412529820e-01 1.6056457631981885e-01  4.9029673488548381e-01 1.1010686549503142e-01 1.5970805654793491e-01  4.9313653499945459e-01 1.0469156986162328e-01 1.7430090249408350e-01  5.0388608690000625e-01 9.8094570856240834e-02 2.2331429309367429e-01  5.0730886892151839e-01 9.0126010001200949e-02 2.4258043844839247e-01  4.9484517177746790e-01 1.1598889627700097e-01 1.7491382238650621e-01  5.2631716986754629e-01 1.3226564899641055e-01 2.9998105441094142e-01  5.8257483821755685e-01 1.5192797038478137e-01 5.3042654486074681e-01  6.1465230251337888e-01 1.6825811853656569e-01 6.5489000205220815e-01  6.8635330213736812e-01 2.6641081556094764e-01 8.1400683363465598e-01  6.9788548826792507e-01 2.8699412866753954e-01 8.2847355725842797e-01  7.0510486430013519e-01 3.0290800773707338e-01 8.3159339052598114e-01  7.0281526388899895e-01 2.9786882448597379e-01 8.3066107567318714e-01  7.0018511758396940e-01 2.9201776931075080e-01 8.2962484545345183e-01  6.9223144943478487e-01 2.7543082347318537e-01 8.2395109860257831e-01  6.8233622708506414e-01 2.5617546162353638e-01 8.1357590347500564e-01  6.6997260137689441e-01 2.3377959586697439e-01 7.9641657264962340e-01  6.5615669968047441e-01 2.1097386331681925e-01 7.7175746962381608e-01  6.4157290628822461e-01 1.8935563190433602e-01 7.3982356076593891e-01  6.2698648870079587e-01 1.7017584436063138e-01 7.0210641390721718e-01  6.1270744760875273e-01 1.5369801418148812e-01 6.6002033699963358e-01  5.9922233284783721e-01 1.4008861050448801e-01 6.1603403218554775e-01  5.8688303393623720e-01 1.2925318441694478e-01 5.7243598564599296e-01  5.7559059139921886e-01 1.2074532605233924e-01 5.2995201555851046e-01  5.5681089858630861e-01 1.0934756927215929e-01 4.5480453937629844e-01  5.4957226652305990e-01 1.0589405316316754e-01 4.2455920064012070e-01  5.4318683166762027e-01 1.0346073873497859e-01 3.9726983283233425e-01  5.3751961323307396e-01 1.0184356334681063e-01 3.7260459180361027e-01  5.3249916143841802e-01 1.0088887060188612e-01 3.5043288854187149e-01  5.2804695967260884e-01 1.0046632445634661e-01 3.3053494866423894e-01  5.2408163950608444e-01 1.0055201836337213e-01 3.1258220853309387e-01  5.2059408706456067e-01 1.0106570337138868e-01 2.9658897565990355e-01  5.1760797532090963e-01 1.0192404957610608e-01 2.8270307886635826e-01  5.1515543644755313e-01 1.0305558511111607e-01 2.7108644741580717e-01  5.1334750513768590e-01 1.0427908091010306e-01 2.6231513583587429e-01  5.1172915438045252e-01 1.0674920421030770e-01 2.5364828884924762e-01  5.1025769968655166e-01 1.1042319830779866e-01 2.4493262430717588e-01  5.0819856440085764e-01 1.1600859177232066e-01 2.3253405582329642e-01  5.0184134066404573e-01 1.3413265577011318e-01 1.9420883679465295e-01  4.9912927890054298e-01 1.4233708522462959e-01 1.7783111648967492e-01  4.9685898201468454e-01 1.4974428008386539e-01 1.6395066626565419e-01  4.9496718014282798e-01 1.5653733836274120e-01 1.5212353004058676e-01  4.9341749354569225e-01 1.6277376552956191e-01 1.4210749244031659e-01  4.9217047087011778e-01 1.6849163445356541e-01 1.3367502764928271e-01  4.9118515812801328e-01 1.7371993629791196e-01 1.2661320912125748e-01  4.9042334713042041e-01 1.7852374173918820e-01 1.2070773578285893e-01  4.8985131235198792e-01 1.8291724133632917e-01 1.1580322310726086e-01  4.8946304608449598e-01 1.8708670994715687e-01 1.1174386445809148e-01  4.8922294100203717e-01 1.9098883233686334e-01 1.0841369563904441e-01  4.8912751668125221e-01 1.9469243458727675e-01 1.0574656279341495e-01  4.8942790738397551e-01 2.0181757847964085e-01 1.0238377596751966e-01  4.8984513428261539e-01 2.0661251225545463e-01 1.0089180051241586e-01  4.9035012954547402e-01 2.1175939691985982e-01 9.9484440750876410e-02  4.9092677582933203e-01 2.1706579752618810e-01 9.8219421419452502e-02  4.9151479888149263e-01 2.2220303205697201e-01 9.7086253366591158e-02  4.9205332400280316e-01 2.2686961893482174e-01 9.6059841652876551e-02  4.9251379194419564e-01 2.3094717890973218e-01 9.5117417289184339e-02  4.9271243703675649e-01 2.3518142727915792e-01 9.3145108511326929e-02  4.9248488711857652e-01 2.3509090900162405e-01 9.2399768346131408e-02  4.9213880548753031e-01 2.3416090925195629e-01 9.1767460183116059e-02  4.9177347697538260e-01 2.3293955905168448e-01 9.1250202752610254e-02  4.9141746399804798e-01 2.3161628282095542e-01 9.0829125333642707e-02  4.9111351744340170e-01 2.3042414503778974e-01 9.0508172180401428e-02  4.9089989936089928e-01 2.2956066868303390e-01 9.0298414509901642e-02  4.9093666572102795e-01 2.2971793976973090e-01 9.0328671704545782e-02  4.9133503401920925e-01 2.3137215703013483e-01 9.0689489338667301e-02  4.9205814764194422e-01 2.3434698805659429e-01 9.1358019286416653e-02  4.9313222766639714e-01 2.3868721319480649e-01 9.2392936946728565e-02  4.9457719374961601e-01 2.4436232330994373e-01 9.3877800841197678e-02  4.9639030363790732e-01 2.5119083477339449e-01 9.5915573519318245e-02  4.9855539095797408e-01 2.5884447751888567e-01 9.8666113556073159e-02  5.0104486486671551e-01 2.6680994759612919e-01 1.0238863687856092e-01  5.0385725955411231e-01 2.7428432171446299e-01 1.0766633375679380e-01  5.0859200443209718e-01 2.7307467235974303e-01 1.2661689944043497e-01  5.0845666666793243e-01 2.6261261881570896e-01 1.3367975492399634e-01  5.0798354659866218e-01 2.5088973513691121e-01 1.4027735051347306e-01  5.0740403272684775e-01 2.3907746679040515e-01 1.4644382123408523e-01  5.0702377727622983e-01 2.2901324786970823e-01 1.5207952449745865e-01  5.0734612853722461e-01 2.2015617761586292e-01 1.5961813390750768e-01  5.0817666720385202e-01 2.1368139064703978e-01 1.6751856166406387e-01  5.0966113904933907e-01 2.0395885769004993e-01 1.8036723047403361e-01  5.1718716336405834e-01 1.6570775071645460e-01 2.3806075176398123e-01  5.2255848981159092e-01 1.5043610371516319e-01 2.7118357030794149e-01  5.2946286357736794e-01 1.3935931936025292e-01 3.0818105691506209e-01  5.3841219722833966e-01 1.3217843744658966e-01 3.5146769213742624e-01  5.4994293862630506e-01 1.2920199239977348e-01 4.0291219992652766e-01  5.6465448685889774e-01 1.3102411979447520e-01 4.6399842284951298e-01  5.8362820709995944e-01 1.3892842935638164e-01 5.3695008263352628e-01  6.4105050624994275e-01 1.8497503662908985e-01 7.2336486218504648e-01  6.6514401736637585e-01 2.1342722222420296e-01 7.8303268314572139e-01  6.8506840020796034e-01 2.4213606731433746e-01 8.2075553595343642e-01  7.0007279417566548e-01 2.6723358862133822e-01 8.4122387327560966e-01  7.1359538433772041e-01 2.9397569525308137e-01 8.5081046831071538e-01  7.2124951624125599e-01 3.1184604498962831e-01 8.5072171377131656e-01  7.2951904892672548e-01 3.3271541826504364e-01 8.4737562557526491e-01  7.3783542680117631e-01 3.5528783815600690e-01 8.4068019628932500e-01  7.4551973430907326e-01 3.7776934232008330e-01 8.3115228364697946e-01  7.5253381157204247e-01 3.9982193790015397e-01 8.1933460921951828e-01  7.5878988574535489e-01 4.2089328138766086e-01 8.0601458132100023e-01  7.6410294650682886e-01 4.4012291597687553e-01 7.9217426794597956e-01  7.6853700580766060e-01 4.5729813904020378e-01 7.7856778229027268e-01  7.7471433510874887e-01 4.8419944698764961e-01 7.5475453093071898e-01  7.7729976079320495e-01 4.9732357493126816e-01 7.4195294985392979e-01  7.7948906584238753e-01 5.0974778411765642e-01 7.2918944747324976e-01  7.8142734793962076e-01 5.2199886246911009e-01 7.1604016418407745e-01  7.8310996861388926e-01 5.3400902227087144e-01 7.0263000794399055e-01  7.8451017033466164e-01 5.4567591291387296e-01 6.8908025327054134e-01  7.8568221228951984e-01 5.5725388200444803e-01 6.7515772940537166e-01  7.8660759262020563e-01 5.6870331509384242e-01 6.6090815058687924e-01  7.8723482868766470e-01 5.7978987774954782e-01 6.4661329915549892e-01  7.8758710192235104e-01 5.9073954703607623e-01 6.3200769936905954e-01  7.8763774898428418e-01 6.0146934164043730e-01 6.1719928648756639e-01  7.8732553200487987e-01 6.1172085176808422e-01 6.0249262633688205e-01  7.8667303960174539e-01 6.2185072566090105e-01 5.8742630700986387e-01  7.8554963863251426e-01 6.3117956078291859e-01 5.7282681513213196e-01  7.8399135238461193e-01 6.4026933561456023e-01 5.5793890188894646e-01  7.7945920851625972e-01 6.5664528290750090e-01 5.2870144794306551e-01  7.7650649710625153e-01 6.6382582676258906e-01 5.1449010448758747e-01  7.7299923771890455e-01 6.7058114789051571e-01 5.0002095265773538e-01  7.6880868068887664e-01 6.7706801504741609e-01 4.8480224846929515e-01  7.6384773511610227e-01 6.8329589601523288e-01 4.6860284988585504e-01  7.5787436399015007e-01 6.8941678811179385e-01 4.5069466755776610e-01  7.5034309714943037e-01 6.9562366712229962e-01 4.2972572023720995e-01  7.2766612657645902e-01 7.0794870538824950e-01 3.7280632857867929e-01  7.1781951074595851e-01 7.1046861438615561e-01 3.5068375090909548e-01  7.0841297341373721e-01 7.1097252173659697e-01 3.3119208747001994e-01  6.9908329440095518e-01 7.0956337523954160e-01 3.1343859781056260e-01  6.8973887539685541e-01 7.0622957557498123e-01 2.9718304484171909e-01  6.8044173635171112e-01 7.0097237728232198e-01 2.8247014472690252e-01  6.7137682080189220e-01 6.9397263331464487e-01 2.6943475281694546e-01  6.6296051765740194e-01 6.8580955569344426e-01 2.5837886955451134e-01  6.5059673823455155e-01 6.7018214584394820e-01 2.4395225943161830e-01  6.4138641402469299e-01 6.5604910651236237e-01 2.3404777859550102e-01  6.2956504759435905e-01 6.3579081431271200e-01 2.2169518296382076e-01  5.9569725597961209e-01 5.6648367915803999e-01 1.8756235516758313e-01  5.8091874469500937e-01 5.3067446028088416e-01 1.7318196644342651e-01  5.6743408140135765e-01 4.9447262909511625e-01 1.6034424947065642e-01  5.5484837034276713e-01 4.5752334156226249e-01 1.4865346615120453e-01  5.4311004302994437e-01 4.2013017750211640e-01 1.3810900637949330e-01  5.3207758490258528e-01 3.8236640006028144e-01 1.2849462686286331e-01  5.2159295370871162e-01 3.4398846615711004e-01 1.1975363011776485e-01  5.0077690386807017e-01 2.5985679856071725e-01 1.0426732809209711e-01  4.9501767741465585e-01 2.3401866093808280e-01 1.0076381000235995e-01  4.9098148116302270e-01 2.1472303988793873e-01 9.8731080934557985e-02  4.8809383206213064e-01 1.9992054169613593e-01 9.7690083362326763e-02  4.8603384891601331e-01 1.8848063815747648e-01 9.7351389884443765e-02  4.8458512179215524e-01 1.7964594786100538e-01 9.7500000033834328e-02  4.8359382257096367e-01 1.7287971505996813e-01 9.7970943825690202e-02  4.8293961453965395e-01 1.6775607298615369e-01 9.8629031770333789e-02  4.8252466630698554e-01 1.6392124961487115e-01 9.9361109660627750e-02  4.8227497092432725e-01 1.6109377654530890e-01 1.0008491196020236e-01  4.8213312501408090e-01 1.5904832046622319e-01 1.0073733193759943e-01  4.8205677396761165e-01 1.5760293402824685e-01 1.0127855500396170e-01  4.8201672724482647e-01 1.5662843362336853e-01 1.0168213056313523e-01  4.8199727534760073e-01 1.5606086651212295e-01 1.0193032424971395e-01  4.8205459983802729e-01 1.5651642608484831e-01 1.0187313364052270e-01  4.8226701560213792e-01 1.5863483169802758e-01 1.0142034246124894e-01  4.8262077006868159e-01 1.6214126307755955e-01 1.0067048003237242e-01  4.8310611985282043e-01 1.6693945271015559e-01 9.9633321661134491e-02  4.8371933435851305e-01 1.7300444913821439e-01 9.8296729265071867e-02  4.8502364815927473e-01 1.8569946470326670e-01 9.5486023283338800e-02  4.8462454759734996e-01 1.8265030673251781e-01 9.5891020991246939e-02  4.8443075167029448e-01 1.8154904263514116e-01 9.5867996435000200e-02  4.8430695244957195e-01 1.8099120904479288e-01 9.5769245913464002e-02  4.8423044480648353e-01 1.8068562308037037e-01 9.5685868016089567e-02  4.8423791511346870e-01 1.8071450507472273e-01 9.5694545554141683e-02  4.8433763166349186e-01 1.8110354500799980e-01 9.5808522533246565e-02  4.8447218370899409e-01 1.8157372722938217e-01 9.5993006434076031e-02  4.8714113471994774e-01 2.0416888488931523e-01 9.1912452940360517e-02  4.8814394091266328e-01 2.1307751601462530e-01 9.0050558603776656e-02  4.8902685210897567e-01 2.2099644549378827e-01 8.8318881561049570e-02  4.8980176973894579e-01 2.2803835900848199e-01 8.6707000511726404e-02  4.9046248974804130e-01 2.3415801989218182e-01 8.5234923554112621e-02  4.9100100775039252e-01 2.3929351169509047e-01 8.3925020033420700e-02  4.9140833350414109e-01 2.4338601939229318e-01 8.2792939469637700e-02  4.9167469084793841e-01 2.4638418638635870e-01 8.1845354941995296e-02  4.9178648547453757e-01 2.4823610010914021e-01 8.1074257555040594e-02  4.9136814033151544e-01 2.4743908999665856e-01 8.0124561651574680e-02  4.9096744636197853e-01 2.4528654270842545e-01 8.0082531278588359e-02  4.9050702685301284e-01 2.4255237536432483e-01 8.0192449528494456e-02  4.9000390259809867e-01 2.3939121159719656e-01 8.0413996228573675e-02  4.8947593665685762e-01 2.3594819598743544e-01 8.0716352007056985e-02  4.8893681261498212e-01 2.3232797048522932e-01 8.1080373910035516e-02  4.8839972634509604e-01 2.2862973189515962e-01 8.1489513810406478e-02  4.8787646450627681e-01 2.2494183873665510e-01 8.1929953245730228e-02  4.8737793167901772e-01 2.2134730869249097e-01 8.2389057579787928e-02  4.8691562687420614e-01 2.1793501843501237e-01 8.2853489391102014e-02  4.8650181530689157e-01 2.1480416968526667e-01 8.3307382764602672e-02  4.8615336347622023e-01 2.1209689057006728e-01 8.3725973250301025e-02  4.8569921530790017e-01 2.0838111833365122e-01 8.4372012621405881e-02  4.8540598550940067e-01 2.0584194792405497e-01 8.4864457843566499e-02  4.8506745644049010e-01 2.0283499192744875e-01 8.5470948777474631e-02  4.8466420111476449e-01 1.9918726480397314e-01 8.6222533200594642e-02  4.8370507987464884e-01 1.9050438135272066e-01 8.7983428173598555e-02  4.8358567740933744e-01 1.8946462740347811e-01 8.8176006629967760e-02  4.8353772708682657e-01 1.8905971046173137e-01 8.8245651655624313e-02  4.8353674307753658e-01 1.8905144601633783e-01 8.8247049766799618e-02  4.8356816082663884e-01 1.8930722626391358e-01 8.8206960629651679e-02  4.8359521427166519e-01 1.8950389966089690e-01 8.8185815478257809e-02  4.8357747111500293e-01 1.8927142848263062e-01 8.8258660118798959e-02  4.8336285357674613e-01 1.8711041740444462e-01 8.8767176683348575e-02  4.8324556230934906e-01 1.8594803083285680e-01 8.9033201212138757e-02  4.8314863182837020e-01 1.8499110669228278e-01 8.9250301251221728e-02  4.8308355150034604e-01 1.8434853035114407e-01 8.9395767616722674e-02  4.8306201593441206e-01 1.8413520164347713e-01 8.9444233891373251e-02  4.8307952441385649e-01 1.8430665891102266e-01 8.9405950956179120e-02  4.8312956281111258e-01 1.8479486540797924e-01 8.9297461333692679e-02  4.8321425873681828e-01 1.8560769216221154e-01 8.9121188052192241e-02  4.8332257214139568e-01 1.8648181447065010e-01 8.8990219395466100e-02  4.8325923954429556e-01 1.8576936429071544e-01 8.9182416924399766e-02  4.8319534827206068e-01 1.8505689809817019e-01 8.9372332473536903e-02  4.8314182993913823e-01 1.8445158703635622e-01 8.9536001534773910e-02  4.8310318158730720e-01 1.8400545934957260e-01 8.9659177205133625e-02  4.8308289791749476e-01 1.8372540815699293e-01 8.9749966433694747e-02  4.8308611655446004e-01 1.8368346099912713e-01 8.9784851362365303e-02  4.8309321444