<?xml version="1.0"?>
<VTKFile type="UnstructuredGrid"  version="0.1"  >
<UnstructuredGrid>
<Piece  NumberOfPoints="7288" NumberOfCells="14083">
<Points>
<DataArray  type="Float64"  NumberOfComponents="3"  format="ascii">239.8 188 0  250.2 180 0  258.2 172.4 0  257 169.4 0  259.9 157.4 0  258.7 150.3 0  261 143.5 0  251.7 144.4 0  250 138.7 0  247 138.1 0  245.2 130.8 0  247.3 126.4 0  242.7 118.6 0  231.2 107.7 0  226 102.4 0  226.5 93.90000000000001 0  224.5 91.19999999999999 0  224.5 84.09999999999999 0  234.5 73.80000000000001 0  228.4 68.90000000000001 0  230 70 0  233.4 68 0  222.7 61.5 0  220.6 45.5 0  223.4 49.40000000000001 0  224 47 0  221.8 43.09999999999999 0  221 38.40000000000001 0  219.5 38.5 0  219.4 41.69999999999999 0  217.1 36.90000000000001 0  209.7 36 0  209.5 31.69999999999999 0  205.1 29.90000000000001 0  201.5 30.40000000000001 0  199.2 38.69999999999999 0  201.8 41.40000000000001 0  194.8 53.80000000000001 0  196.1 57.69999999999999 0  193 59 0  191.4 66.09999999999999 0  193.5 66.5 0  194.1 64.40000000000001 0  195.6 64.69999999999999 0  195.4 72.40000000000001 0  199.5 77.30000000000001 0  197.7 86.90000000000001 0  200.6 87.5 0  201.5 91 0  198 94.80000000000001 0  198.6 100 0  197.3 105.4 0  198 109.5 0  197 112.7 0  198.3 116.1 0  201.3 122 0  207.2 121 0  208.1 126.7 0  205.6 127.9 0  209.1 134.9 0  210.9 144.4 0  210.1 147.9 0  213 148.4 0  215.4 149.3 0  215.1 152.8 0  219.9 159.7 0  220.3 163.2 0  218.7 164.9 0  219.9 166.7 0  221.9 169.7 0  220 170.3 0  224.9 174.7 0  229.8 177.4 0  229.7 181 0  228 172.9 0  239 178 0  240.4 180 0  239 181.5 0  241.2 185.9 0  242.95 187.99 0  240.5875 187.9975 0  241.375 187.995 0  242.1625 187.9925 0  243.6090909090879 187.2636363636397 0  244.2681818181765 186.5372727272785 0  244.9272727272692 185.810909090913 0  245.5863636363531 185.0845454545571 0  246.245454545445 184.3581818181923 0  246.9045454545351 183.6318181818295 0  247.5636363636303 182.9054545454612 0  248.2227272727197 182.1790909090992 0  248.8818181818179 181.4527272727275 0  249.5409090909066 180.7263636363664 0  250.8666666666961 179.3666666666387 0  251.5333333334033 178.7333333332668 0  252.2000000000994 178.0999999999055 0  252.8666666668011 177.466666666539 0  253.5333333335083 176.8333333331671 0  254.2000000002044 176.1999999998058 0  254.8666666669005 175.5666666664445 0  255.5333333336077 174.9333333330727 0  256.2000000002685 174.2999999997449 0  256.8666666668457 173.6666666664966 0  257.5333333334283 173.033333333243 0  257.9000000000077 171.6500000000191 0  257.6000000000015 170.9000000000038 0  257.2999999999954 170.1499999999885 0  257.2230769230778 168.4769230769195 0  257.4461538461543 167.5538461538442 0  257.6692307692309 166.6307692307688 0  257.8923076923074 165.7076923076935 0  258.115384615384 164.7846153846181 0  258.3384615384605 163.8615384615427 0  258.5615384615395 162.9384615384572 0  258.784615384616 162.0153846153819 0  259.0076923076926 161.0923076923065 0  259.2307692307691 160.1692307692311 0  259.4538461538457 159.2461538461558 0  259.6769230769222 158.3230769230804 0  259.750000000001 156.512500000006 0  259.6000000000014 155.6250000000082 0  259.4500000000029 154.7375000000176 0  259.3000000000018 153.8500000000108 0  259.1500000000007 152.962500000004 0  259.0000000000004 152.0750000000026 0  258.849999999999 151.187499999994 0  258.9875000000052 149.4499999999846 0  259.275000000002 148.5999999999941 0  259.5624999999954 147.7500000000135 0  259.849999999995 146.900000000015 0  260.1374999999945 146.0500000000164 0  260.4249999999913 145.2000000000259 0  260.7124999999948 144.3500000000154 0  260.0700000000398 143.5899999999961 0  259.1400000000573 143.6799999999944 0  258.2100000000351 143.7699999999966 0  257.2800000000262 143.8599999999975 0  256.350000000011 143.9499999999989 0  255.4199999999881 144.0400000000011 0  254.4899999999726 144.1300000000026 0  253.5599999999944 144.2200000000005 0  252.6300000000009 144.3099999999999 0  251.4166666666658 143.4499999999971 0  251.1333333333388 142.5000000000182 0  250.8500000000015 141.5500000000051 0  250.5666666666612 140.5999999999818 0  250.2833333333342 139.6500000000029 0  249.2500000000005 138.5500000000001 0  248.5000000000011 138.4000000000002 0  247.7499999999995 138.2499999999999 0  246.7750000000005 137.1875000000023 0  246.5500000000021 136.2750000000085 0  246.3250000000036 135.3625000000147 0  246.1000000000042 134.450000000017 0  245.8750000000022 133.5375000000088 0  245.650000000003 132.6250000000124 0  245.4250000000046 131.7125000000187 0  245.619999999996 129.9200000000084 0  246.0399999999992 129.0400000000017 0  246.4599999999987 128.1600000000028 0  246.8800000000001 127.2799999999997 0  246.8399999999988 125.6199999999979 0  246.3799999999984 124.8399999999973 0  245.9199999999991 124.0599999999985 0  245.4600000000036 123.2800000000062 0  245.0000000000049 122.5000000000082 0  244.5400000000036 121.7200000000062 0  244.0800000000033 120.9400000000056 0  243.6200000000016 120.1600000000027 0  243.1600000000012 119.3800000000021 0  241.9812499999996 117.9187499999997 0  241.2625000000007 117.2375000000007 0  240.5437500000017 116.5562500000017 0  239.8250000000041 115.875000000004 0  239.1062500000066 115.1937500000063 0  238.3875000000076 114.5125000000072 0  237.6687500000087 113.8312500000082 0  236.9500000000083 113.1500000000079 0  236.231250000008 112.4687500000076 0  235.512500000009 111.7875000000085 0  234.7937500000045 111.1062500000043 0  234.0750000000042 110.4250000000039 0  233.3562500000066 109.7437500000062 0  232.6375000000021 109.062500000002 0  231.9187500000031 108.381250000003 0  230.5500000000004 107.0375000000004 0  229.9000000000021 106.3750000000021 0  229.2500000000038 105.7125000000039 0  228.6000000000041 105.0500000000042 0  227.9500000000018 104.3875000000018 0  227.2999999999952 103.7249999999951 0  226.6500000000024 103.0625000000024 0  226.0555555555555 101.4555555555556 0  226.1111111111111 100.5111111111111 0  226.1666666666667 99.56666666666668 0  226.2222222222222 98.62222222222223 0  226.2777777777778 97.67777777777778 0  226.3333333333333 96.73333333333335 0  226.3888888888889 95.78888888888889 0  226.4444444444445 94.84444444444446 0  226 93.22499999999999 0  225.5000000000026 92.55000000000358 0  225.0000000000026 91.87500000000358 0  224.5 90.31250000000068 0  224.5 89.4250000000097 0  224.5 88.53750000001317 0  224.5 87.65000000001388 0  224.5 86.76250000001457 0  224.5 85.87500000001248 0  224.5 84.9874999999993 0  225.1666666666659 83.41333333333409 0  225.8333333333319 82.72666666666818 0  226.4999999999978 82.04000000000228 0  227.1666666666649 81.35333333333514 0  227.8333333333301 80.66666666667 0  228.4999999999942 79.980000000006 0  229.1666666666601 79.2933333333401 0  229.8333333333316 78.60666666666847 0  230.4999999999975 77.92000000000257 0  231.1666666666644 77.23333333333572 0  231.8333333333295 76.54666666667057 0  232.4999999999972 75.86000000000287 0  233.1666666666681 75.17333333333181 0  233.8333333333368 74.48666666666306 0  233.7499999999995 73.16666666666629 0  233.0000000000018 72.53333333333488 0  232.2500000000014 71.90000000000116 0  231.5000000000009 71.26666666666743 0  230.7500000000005 70.63333333333372 0  229.233333333333 68.75000000000006 0  230.0666666666665 68.60000000000004 0  230.8999999999995 68.45000000000009 0  231.7333333333325 68.30000000000015 0  232.566666666667 68.14999999999995 0  232.5499999999897 68.50000000000607 0  231.7 69 0  230.8500000000103 69.49999999999393 0  227.8300000000008 68.16000000000106 0  227.2600000000064 67.42000000000837 0  226.6900000000077 66.68000000001001 0  226.1200000000024 65.94000000000314 0  225.5500000000108 65.20000000001409 0  224.9800000000098 64.46000000001268 0  224.4100000000007 63.72000000000098 0  223.8399999999971 62.97999999999621 0  223.2699999999993 62.23999999999915 0  222.753846153846 60.56923076923239 0  222.8076923076921 59.63846153846478 0  222.8615384615381 58.70769230769827 0  222.9153846153842 57.77692307693071 0  222.9692307692302 56.84615384616315 0  223.0230769230761 55.91538461539836 0  223.0769230769224 54.98461538462665 0  223.1307692307688 54.05384615385345 0  223.184615384615 53.12307692308312 0  223.2384615384611 52.19230769231556 0  223.2923076923071 51.26153846154906 0  223.3461538461533 50.33076923077847 0  222.8400000000024 48.62000000000327 0  222.2800000000047 47.84000000000661 0  221.7200000000005 47.06000000000071 0  221.1600000000003 46.28000000000039 0  221.4500000000116 45.87500000000512 0  222.3 46.25 0  223.1499999999884 46.62499999999488 0  223.5600000000055 46.22000000000981 0  223.1199999999987 45.43999999999767 0  222.6800000000061 44.66000000001075 0  222.2399999999969 43.8799999999944 0  221.6400000000004 42.16000000000253 0  221.4800000000009 41.22000000000548 0  221.3200000000014 40.28000000000801 0  221.1600000000009 39.34000000000556 0  220.25 38.45 0  219.4749999999999 39.30000000000165 0  219.45 40.09999999999999 0  219.425 40.90000000000112 0  219.0166666666641 40.89999999999463 0  218.6333333333375 40.10000000000875 0  218.2500000000016 39.30000000000339 0  217.8666666666635 38.49999999999351 0  217.483333333337 37.70000000000762 0  216.1750000000165 36.78750000000201 0  215.2500000000275 36.67500000000335 0  214.3250000000385 36.56250000000469 0  213.4000000000277 36.45000000000337 0  212.4750000000059 36.33750000000072 0  211.5499999999838 36.22499999999803 0  210.6249999999835 36.11249999999799 0  209.6600000000001 35.14000000000318 0  209.6200000000001 34.28000000000268 0  209.5800000000001 33.42000000000284 0  209.5399999999998 32.55999999999681 0  208.6200000000117 31.34000000000476 0  207.7400000000138 30.98000000000564 0  206.8600000000162 30.62000000000662 0  205.9800000000174 30.26000000000711 0  204.2000000000054 30.02499999999925 0  203.2999999999946 30.15000000000076 0  202.3999999999945 30.27500000000076 0  201.2444444444438 31.32222222222468 0  200.9888888888895 32.24444444
[...]
<PointData  Vectors="f_12"> 
<DataArray  type="Float64"  Name="f_12"  NumberOfComponents="3" format="ascii">7.2088900263631361e-01 7.9794075908790896e-01 2.2652121226088273e-01  7.2807732560454907e-01 7.9705051303298857e-01 2.3997265427005660e-01  7.3637499753418045e-01 7.9501863569111930e-01 2.5641004735573819e-01  7.3901277441091540e-01 7.9384472129808892e-01 2.6228111486943562e-01  7.5380391256926937e-01 7.8523268632010812e-01 2.9731134698958689e-01  7.6044939156514546e-01 7.7938411893036963e-01 3.1549764749418024e-01  7.6256807611103583e-01 7.7764594669913079e-01 3.2101978128359776e-01  7.6752004253675343e-01 7.6953536707588732e-01 3.4012609165456920e-01  7.7396692783542886e-01 7.5911856775843689e-01 3.6450910953966353e-01  7.7622114096562134e-01 7.5498394954544901e-01 3.7368107587761429e-01  7.8310324573009249e-01 7.4098880067118977e-01 4.0355250661261116e-01  7.8504889308676273e-01 7.3657890930926895e-01 4.1260955595889587e-01  7.8687359591049355e-01 7.3182013939798585e-01 4.2202702242158352e-01  7.9286662145060194e-01 6.8535059129337883e-01 4.9998752972194860e-01  7.8637660249317332e-01 5.7453023414020910e-01 6.5182927858543283e-01  7.4100036279755854e-01 3.7309526945305627e-01 8.2882379541317286e-01  7.0955265346660534e-01 3.0464283689317601e-01 8.3212842776030849e-01  6.5419199110368831e-01 3.2157691723971110e-01 6.6715114728391811e-01  5.6379519329906957e-01 5.1773544801282922e-01 1.2963219538888068e-01  5.4395043540211230e-01 4.4886604699525878e-01 1.1952014189407924e-01  5.4742992522315381e-01 4.6590623142900728e-01 1.1752057952155806e-01  5.3419685926143679e-01 4.3320140074105884e-01 9.8204636546400728e-02  4.9638621576788988e-01 2.0612238535879621e-01 1.2398129166383805e-01  5.3260056001407019e-01 9.2757921582865582e-02 3.5126554011144617e-01  5.0344596588291757e-01 9.9966214368805428e-02 2.1951878420362730e-01  5.3883602208384451e-01 8.7553521962896855e-02 3.8350552777966196e-01  5.4608971772590076e-01 9.0619271737457291e-02 4.1344454285758014e-01  5.6325570213947418e-01 9.0647848835828063e-02 4.9093392900392091e-01  5.6321920551676963e-01 9.0665350271738374e-02 4.9075764595682603e-01  5.5665344187133647e-01 9.3556220400373868e-02 4.5899184286991257e-01  5.9334881556402075e-01 1.1301389258233308e-01 6.0808998499265443e-01  6.6641321767648565e-01 2.3571544343584425e-01 7.7312620897416984e-01  7.4082335038103087e-01 4.2566943208080782e-01 7.7515919229882801e-01  7.5913859327038891e-01 4.9611628684522324e-01 7.2222423555568460e-01  7.5978268199078114e-01 4.9981928113507007e-01 7.1855260311687841e-01  6.7543607139409267e-01 2.5398020079857481e-01 7.9384753373313077e-01  6.0239669654626959e-01 1.5550504163273229e-01 6.0639248848412408e-01  5.0839541320462300e-01 8.5753260765585398e-02 2.4751547642550051e-01  4.9860170855278929e-01 9.8959553903275779e-02 1.9875757758753482e-01  4.9363388173770967e-01 1.0578254747331825e-01 1.7471244431767910e-01  4.9394078205397085e-01 2.1137514207532496e-01 1.1229533143719821e-01  4.9578102347155384e-01 2.1338946064825595e-01 1.1765881344184345e-01  4.9259999483158845e-01 1.3852939812929266e-01 1.5161429286920142e-01  4.9431010033289846e-01 1.6572603314083384e-01 1.4166909541638600e-01  5.3008528737085381e-01 3.4373390759313588e-01 1.5299146212473710e-01  6.4488063265831408e-01 5.4393053199045016e-01 3.7626833307239271e-01  7.4949652863932936e-01 5.9552598617439800e-01 5.7646151706942961e-01  7.5503896948069971e-01 5.8646141184581124e-01 5.9699508172790894e-01  7.7495849244190762e-01 6.1354407908312047e-01 5.8601715078136918e-01  7.8553486945657480e-01 6.8355149892620404e-01 4.9568356518003626e-01  7.8354506192056761e-01 7.1775725574869753e-01 4.4075993833293187e-01  7.7662306779799251e-01 7.5122470212405068e-01 3.8033184969187095e-01  7.7160506044263544e-01 7.6443312328524982e-01 3.5339930746049869e-01  7.6821193248352648e-01 7.7209691235827949e-01 3.3707238268858480e-01  7.6688501709407264e-01 7.7450727174716694e-01 3.3158149071875226e-01  7.6665816568979650e-01 7.7466201168831983e-01 3.3102719054781732e-01  7.7164279801882818e-01 7.6441414940115660e-01 3.5339442820718331e-01  7.6928942132464539e-01 7.7006990926860297e-01 3.4150822441474737e-01  7.6790411259747016e-01 7.7267865362215449e-01 3.3565789321007466e-01  7.6558804637365618e-01 7.7564466074787597e-01 3.2804374654316937e-01  7.6108514273323913e-01 7.8069463030050623e-01 3.1425328136860259e-01  7.6030006246664605e-01 7.8156468682340940e-01 3.1184951017758072e-01  7.6031377126031130e-01 7.8135820095498798e-01 3.1219540964884179e-01  7.5980121481260643e-01 7.8140825549592752e-01 3.1144104457196453e-01  7.5807828652374354e-01 7.8281269846694967e-01 3.0693571428165467e-01  7.5234067553611483e-01 7.8679633019654460e-01 2.9279980598395711e-01  7.4760097561662064e-01 7.9006534024166741e-01 2.8094704797580322e-01  7.4600564631959609e-01 7.9115467616867785e-01 2.7694229648760060e-01  7.4505845479771449e-01 7.9173279456750023e-01 2.7465233773818637e-01  7.4329322041959689e-01 7.9271711862956140e-01 2.7050930852190830e-01  7.4366786298754051e-01 7.9256964934159535e-01 2.7129908304586642e-01  7.4062276274354777e-01 7.9395678047354734e-01 2.6457777913278047e-01  7.3445022776785984e-01 7.9601518436513430e-01 2.5184007379546319e-01  7.3345977614209734e-01 7.9639072795580890e-01 2.4969940943960062e-01  7.3931939651429956e-01 7.9426637029049973e-01 2.6209936385281768e-01  7.3075613627469915e-01 7.9645156925232674e-01 2.4524531066322489e-01  7.2609744290116629e-01 7.9724274161834308e-01 2.3637520437528101e-01  7.2408163749250820e-01 7.9755612250893526e-01 2.3253889707863459e-01  7.2150579650807289e-01 7.9787826688817165e-01 2.2767369770324447e-01  7.2115409581091816e-01 7.9791711179206104e-01 2.2701269898834442e-01  7.2092166640313804e-01 7.9793771860054608e-01 2.2658196228729385e-01  7.2099378915403267e-01 7.9793119074522478e-01 2.2671584946248191e-01  7.2107855694213829e-01 7.9792375145525851e-01 2.2687285783652592e-01  7.2134168729100101e-01 7.9789972373937224e-01 2.2736080355089378e-01  7.2168061493842217e-01 7.9786764943064303e-01 2.2798987086293551e-01  7.2212676963864530e-01 7.9782424682968145e-01 2.2881807513227514e-01  7.2266115845871137e-01 7.9777021718327901e-01 2.2981059192680817e-01  7.2327335348167310e-01 7.9770525403055426e-01 2.3094886280228458e-01  7.2395008987354048e-01 7.9762936059491363e-01 2.3220899944754150e-01  7.2468801415542383e-01 7.9754095663047242e-01 2.3358653462575787e-01  7.2547502955591281e-01 7.9744000536686044e-01 2.3505995073694791e-01  7.2630030608928331e-01 7.9732627287202407e-01 2.3661027289622252e-01  7.2716654395235192e-01 7.9719712902055495e-01 2.3824512933884956e-01  7.2893708176302041e-01 7.9690233118285736e-01 2.4161116819733688e-01  7.2977229494843610e-01 7.9674801214353264e-01 2.4321179548660055e-01  7.3060016387678750e-01 7.9658327769514170e-01 2.4480957335948994e-01  7.3141819811416819e-01 7.9640834917870185e-01 2.4640042494790321e-01  7.3221959447303542e-01 7.9622448827805337e-01 2.4797176749308242e-01  7.3299674750480315e-01 7.9603377623991156e-01 2.4950882492405527e-01  7.3374672291368936e-01 7.9583645226384692e-01 2.5100716276031310e-01  7.3445682053130257e-01 7.9563672274232733e-01 2.5244088433574363e-01  7.3510959103010787e-01 7.9544096190635172e-01 2.5377341001364989e-01  7.3568301893786059e-01 7.9525799600137093e-01 2.5495754973023688e-01  7.3613526562892395e-01 7.9510480930057892e-01 2.5590264166198262e-01  7.3660771051441887e-01 7.9492068201376076e-01 2.5692169793938752e-01  7.3711072012904499e-01 7.9470252676802544e-01 2.5803544771599507e-01  7.3786374669536359e-01 7.9436745842938761e-01 2.5971208151011715e-01  7.4050390334060834e-01 7.9314958731477547e-01 2.6562902722455950e-01  7.4182986072008550e-01 7.9250834677153847e-01 2.6862819603120563e-01  7.4311039607335327e-01 7.9186399174211741e-01 2.7154921788607445e-01  7.4436522962166929e-01 7.9120683604219944e-01 2.7443732066048920e-01  7.4559584154673697e-01 7.9053615005756495e-01 2.7729647386018974e-01  7.4679907538845403e-01 7.8985381312423841e-01 2.8011999345059846e-01  7.4796970451742351e-01 7.8916309573621246e-01 2.8289621642775026e-01  7.4910272470142725e-01 7.8846771581017705e-01 2.8561349209105774e-01  7.5018954862288589e-01 7.8777358498309458e-01 2.8825141004899896e-01  7.5122601290795588e-01 7.8708386686839227e-01 2.9080064232238723e-01  7.5219663091499445e-01 7.8641203241163593e-01 2.9321987725598880e-01  7.5308264469774100e-01 7.8577370558534521e-01 2.9546000680578410e-01  7.5448424169862960e-01 7.8469414149280614e-01 2.9909589014940652e-01  7.5527957649226896e-01 7.8404164853042946e-01 3.0121237163798442e-01  7.5612352577329378e-01 7.8332707992962158e-01 3.0348710279588365e-01  7.5698457376715733e-01 7.8257518987864094e-01 3.0583779397231142e-01  7.5784801053315343e-01 7.8180071737877221e-01 3.0822115409952977e-01  7.5870454273375776e-01 7.8101576239265658e-01 3.1060580489755762e-01  7.5955770402285916e-01 7.8022064027382310e-01 3.1299624566314233e-01  7.6117867281908502e-01 7.7872323807361132e-01 3.1750278283537708e-01  7.6168879222785246e-01 7.7827053396915991e-01 3.1888755235456517e-01  7.6204256301137141e-01 7.7797570229023016e-01 3.1981600885959655e-01  7.6228871337471016e-01 7.7778586457264087e-01 3.2043676373670194e-01  7.6244376992383722e-01 7.7768344814982115e-01 3.2079999510005192e-01  7.6252868699263177e-01 7.7764294924500921e-01 3.2097388730584397e-01  7.6256278994334492e-01 7.7763993609659232e-01 3.2102255753323961e-01  7.6257727827866517e-01 7.7762031034898482e-01 3.2107240389686659e-01  7.6262533316410153e-01 7.7751540854493095e-01 3.2130100498586306e-01  7.6273622485151815e-01 7.7730141573813361e-01 3.2178355799142100e-01  7.6292439181973837e-01 7.7695928305074491e-01 3.2256832941534069e-01  7.6321105918316801e-01 7.7646173116101103e-01 3.2372496211666896e-01  7.6361359729411471e-01 7.7578569470006797e-01 3.2531098124422791e-01  7.6415101078486058e-01 7.7490208477206302e-01 3.2739485812574198e-01  7.6486022975936485e-01 7.7375411691360263e-01 3.3011104722574042e-01  7.6584150267088680e-01 7.7218641710352032e-01 3.3382880287935052e-01  7.6949863524809303e-01 7.6643109091336892e-01 3.4749644060124807e-01  7.7086493870660200e-01 7.6425825409695103e-01 3.5261820707346814e-01  7.7198450245700678e-01 7.6244295626027625e-01 3.5685880220582356e-01  7.7289294423747545e-01 7.6094120037589152e-01 3.6033629693841618e-01  7.7358432068967209e-01 7.5977671348981257e-01 3.6301088420419420e-01  7.7417660981927949e-01 7.5874495106253526e-01 3.6534740381692610e-01  7.7460752893704132e-01 7.5796733719258236e-01 3.6708334047491320e-01  7.7523337430721506e-01 7.5682072588299287e-01 3.6962791015154128e-01  7.7755951901024278e-01 7.5244253369526470e-01 3.7924595426992336e-01  7.7855287054531808e-01 7.5050777399390356e-01 3.8344305488596808e-01  7.7941653270195888e-01 7.4878578607635793e-01 3.8714649587742628e-01  7.8020211189513511e-01 7.4718563617215039e-01 3.9056070442581098e-01  7.8093348645023686e-01 7.4566601100002761e-01 3.9377918171721515e-01  7.8163082953801888e-01 7.4419035201056749e-01 3.9688337763622861e-01  7.8232241134661518e-01 7.4270101364349517e-01 3.9999635880438600e-01  7.8380992504288649e-01 7.3941149889793700e-01 4.0680903983451772e-01  7.8429356431798603e-01 7.3831695904133976e-01 4.0905823467954766e-01  7.8465432950507918e-01 7.3749156794971704e-01 4.1074804712126844e-01  7.8491153722322116e-01 7.3689804345061283e-01 4.1195961227850031e-01  7.8515010389767237e-01 7.3634126892951157e-01 4.1309183649469638e-01  7.8530249659506657e-01 7.3598005901326147e-01 4.1382288662279226e-01  7.8547936301428678e-01 7.3555509125115159e-01 4.1467989472997296e-01  7.8567238735900680e-01 7.3508299959051526e-01 4.1562776360277637e-01  7.8587118949629564e-01 7.3458593540274741e-01 4.1662056065952174e-01  7.8607506159975071e-01 7.3406242699231750e-01 4.1765983181534744e-01  7.8628199812863209e-01 7.3351413878809202e-01 4.1874081372898836e-01  7.8648772219246865e-01 7.3294878568393018e-01 4.1984682021328223e-01  7.8668957772124382e-01 7.3237104430291700e-01 4.2096767458136025e-01  7.8708053737274009e-01 7.3116125934090748e-01 4.2327943017083797e-01  7.8732587130716714e-01 7.3033224862446489e-01 4.2483838356168235e-01  7.8759676830891279e-01 7.2935811369238457e-01 4.2665066383729033e-01  7.8789734731142058e-01 7.2820444151363772e-01 4.2877385598380391e-01  7.8822649646562282e-01 7.2685209458337752e-01 4.3123596939767406e-01  7.8858375996091601e-01 7.2527150156686659e-01 4.3408170249430922e-01  7.8897092438059258e-01 7.2341848548713694e-01 4.3738051099319963e-01  7.8938640560043349e-01 7.2125183192611086e-01 4.4119312413700212e-01  7.8982450535722826e-01 7.1873753871994861e-01 4.4556413695350466e-01  7.9028439613214907e-01 7.1580350080599886e-01 4.5060136555691782e-01  7.9075836236342645e-01 7.1239623340558966e-01 4.5637540048235975e-01  7.9123400874184269e-01 7.0846535284203949e-01 4.6294549693998144e-01  7.9170601531360552e-01 7.0388471499245797e-01 4.7049271043841900e-01  7.9214501685364636e-01 6.9861301147865396e-01 4.7903829607121706e-01  7.9254157653077084e-01 6.9247745209701306e-01 4.8882233326317970e-01  7.9307246531288778e-01 6.7766956388141353e-01 5.1179756150285061e-01  7.9314253255702938e-01 6.6903198693805388e-01 5.2481627963291855e-01  7.9304402878774471e-01 6.5928484205404092e-01 5.3920134435253253e-01  7.9271228231877988e-01 6.4806501924574345e-01 5.5535798693697358e-01  7.9208727604310170e-01 6.3523684546598425e-01 5.7334061004460746e-01  7.9105172329652385e-01 6.2014092929702169e-01 5.9384590610023891e-01  7.8936743424012201e-01 6.0137627126811133e-01 6.1836159926519141e-01  7.8225566735073815e-01 5.4396560880401934e-01 6.8779079949112676e-01  7.7819734015295439e-01 5.1854182004043925e-01 7.1572690347306933e-01  7.7375823828875923e-01 4.9452632669741303e-01 7.4018823393555289e-01  7.6884406705601360e-01 4.7115147258581058e-01 7.6206158406637403e-01  7.6345372591283289e-01 4.4829855033610894e-01 7.8147582035842711e-01  7.5764696387735131e-01 4.2616240747619155e-01 7.9825470148254485e-01  7.5159447990287176e-01 4.0525598282434011e-01 8.1209085058561148e-01  7.4568558614665481e-01 3.8663401231221556e-01 8.2257013292072345e-01  7.3679316982114418e-01 3.6233086060486874e-01 8.3219498018986660e-01  7.3013279476923076e-01 3.4654439983553037e-01 8.3530768021583424e-01  7.2149083035827322e-01 3.2786456528155433e-01 8.3601584428366826e-01  6.9611235335836152e-01 2.8172188314095870e-01 8.2192296398306208e-01  6.8524523394196835e-01 2.6644159862143951e-01 8.0855401775569991e-01  6.7607427157773226e-01 2.5712455854785465e-01 7.9254159730983331e-01  6.6855220217442113e-01 2.5374186004172417e-01 7.7465778634369264e-01  6.6270161575542919e-01 2.5677054350132217e-01 7.5508231944559179e-01  6.5865428532165793e-01 2.6731760012844524e-01 7.3346455124037424e-01  6.5603492440643685e-01 2.8666488851863314e-01 7.0728486085753162e-01  6.5259727046285609e-01 3.6612721980630258e-01 6.1587752444264077e-01  6.5076284928313743e-01 4.0543525253805340e-01 5.6720971273086629e-01  6.4788660414962762e-01 4.4246747230773537e-01 5.1603848863573620e-01  6.4353192515619861e-01 4.7607183190004054e-01 4.6272181024263676e-01  6.3752411663720954e-01 5.0467977670371800e-01 4.0894615326723899e-01  6.2992821204635630e-01 5.2701066786648842e-01 3.5675986572828594e-01  6.2100079227874661e-01 5.4225552921879383e-01 3.0811335758002217e-01  6.1116957230314595e-01 5.5028296483314709e-01 2.6455143549142157e-01  6.0098052293141191e-01 5.5179152387122199e-01 2.2695521805859692e-01  5.9104031681759750e-01 5.4805305906178126e-01 1.9578459027794642e-01  5.8194761807065332e-01 5.4091328763564772e-01 1.7098008516269847e-01  5.7428396070003962e-01 5.3245778143884670e-01 1.5235940514853327e-01  5.6852578971163958e-01 5.2477543231492951e-01 1.3954633737243594e-01  5.6497639605436767e-01 5.1950599179424339e-01 1.3210085321113788e-01  5.6363860400645271e-01 5.1690352610607648e-01 1.2983490793566943e-01  5.6275707335856917e-01 5.1375825286796151e-01 1.2959786228863932e-01  5.6102356965029343e-01 5.0796934878450284e-01 1.2872903771391186e-01  5.5837485754107030e-01 4.9932555853839389e-01 1.2711760140719369e-01  5.5437051704823648e-01 4.8666025360884935e-01 1.2411864658352770e-01  5.4400405591041867e-01 4.5457237537168010e-01 1.1507144568285903e-01  5.4177252339903603e-01 4.5124945019582574e-01 1.0999978546887490e-01  5.3881359234019754e-01 4.4458298843603894e-01 1.0511344293224577e-01  5.3645384174349509e-01 4.3887013188813628e-01 1.0151039287565164e-01  5.3492905559558235e-01 4.3505943019353549e-01 9.9264842284097016e-02  5.3507648115580120e-01 4.3543262642377051e-01 9.9478876589012333e-02  5.3713560526652071e-01 4.4057159093426451e-01 1.0251248104786095e-01  5.4059569864448809e-01 4.4901525014660754e-01 1.0770210842957598e-01  5.3941755963945481e-01 4.2889910793282277e-01 1.1969638185848165e-01  5.3436684613817409e-01 4.0794766226743551e-01 1.1840315747750894e-01  5.2905954077832507e-01 3.8552594567032678e-01 1.1686927562559772e-01  5.2371718496805697e-01 3.6195364475006986e-01 1.1558257980478381e-01  5.1849303744964970e-01 3.3755105667708274e-01 1.1481205919593673e-01  5.1352052100633983e-01 3.1272455700543633e-01 1.1473396306414327e-01  5.0887247232142829e-01 2.8768062516812631e-01 1.1546212474822848e-01  5.0455447256684671e-01 2.6236105257340103e-01 1.1705965709760795e-01  5.0052580259335688e-01 2.3627865624814134e-01 1.1968930228649496e-01  4.9315812035506212e-01 1.7875500381236656e-01 1.2928436627547765e-01  4.9146267240955799e-01 1.6023397902262024e-01 1.3436442110220759e-01  4.9064495491474869e-01 1.4607265467490194e-01 1.3985927431159537e-01  4.9049797371584930e-01 1.3508218801274854e-01 1.4587836963907180e-01  4.9087091687429985e-01 1.2645038923970536e-01 1.5244874612726159e-01  4.9166340484131760e-01 1.1968363505704935e-01 1.5955370443570341e-01  4.9279568532906737e-01 1.1437741861210464e-01 1.6717463934039128e-01  4.9420804201251350e-01 1.1021381589922563e-01 1.7529924966283392e-01  4.9585587074287663e-01 1.0693832889871945e-01 1.8392157328082553e-01  4.9770122237674957e-01 1.0436766569362711e-01 1.9300828624501359e-01  4.9970206964534125e-01 1.0236749133502054e-01 2.0246786909080491e-01  5.0176319305680639e-01 1.0087117354123615e-01 2.1193791070252344e-01  5.0568014344220058e-01 9.9213337541623925e-02 2.2938582104390193e-01  5.0932445377404834e-01 9.8267339208592722e-02 2.4544492825947836e-01  5.1435437839787901e-01 9.7132942984074891e-02 2.6778581921010719e-01  5.2129028276607126e-01 9.5569567563702912e-02 2.9911172225920929e-01  5.3765651550787597e-01 8.9949830173056231e-02 3.7611034664343490e-01  5.3869455975124858e-01 8.8564514846325590e-02 3.8196142968946162e-01  5.3883725790845560e-01 8.7829819957807129e-02 3.8326069067452850e-01  5.3883952605660212e-01 8.7813993036886417e-02 3.8328527309760230e-01  5.3897059731145724e-01 8.8419885510265209e-02 3.8332687343448218e-01  5.3969750929436999e-01 8.9242595551606088e-02 3.8585657707602655e-01  5.4187940339118912e-01 9.0017784235614975e-02 3.9498522702970096e-01  5.5155629710563825e-01 9.0922402278193148e-02 4.3787881959314484e-01  5.5625424297767601e-01 9.0967884365085072e-02 4.5907407090473479e-01  5.5992784717743005e-01 9.0831159799320008e-02 4.7577478309001431e-01  5.6235899894586994e-01 9.0696740788986804e-02 4.8685100230566586e-01  5.6318572183318449e-01 9.0660377702995967e-02 4.9060955238219250e-01  5.6259521908432875e-01 9.0731868928876858e-02 4.8789475283694422e-01  5.6097458821546620e-01 9.0970888974696434e-02 4.8040915539596513e-01  5.5877249752018787e-01 9.1664014558380705e-02 4.6996254029809120e-01  5.6414232480561866e-01 9.7721917820840637e-02 4.8970042957250925e-01  5.7154549968596968e-01 1.0117882122450669e-01 5.2039031633626687e-01  5.7875026483837499e-01 1.0466753781940312e-01 5.4995357435213810e-01  5.8527494290132798e-01 1.0811477037842807e-01 5.7630223304584816e-01  5.9049576098013268e-01 1.1115085916942280e-01 5.9700987504215264e-01  5.9559461645283673e-01 1.1507658938189423e-01 6.1623118278128552e-01  5.9918303583242682e-01 1.1892961209006528e-01 6.2863619715738761e-01  6.0380626887