<?xml version="1.0"?>
<VTKFile type="UnstructuredGrid"  version="0.1"  >
<UnstructuredGrid>
<Piece  NumberOfPoints="7288" NumberOfCells="14083">
<Points>
<DataArray  type="Float64"  NumberOfComponents="3"  format="ascii">239.8 188 0  250.2 180 0  258.2 172.4 0  257 169.4 0  259.9 157.4 0  258.7 150.3 0  261 143.5 0  251.7 144.4 0  250 138.7 0  247 138.1 0  245.2 130.8 0  247.3 126.4 0  242.7 118.6 0  231.2 107.7 0  226 102.4 0  226.5 93.90000000000001 0  224.5 91.19999999999999 0  224.5 84.09999999999999 0  234.5 73.80000000000001 0  228.4 68.90000000000001 0  230 70 0  233.4 68 0  222.7 61.5 0  220.6 45.5 0  223.4 49.40000000000001 0  224 47 0  221.8 43.09999999999999 0  221 38.40000000000001 0  219.5 38.5 0  219.4 41.69999999999999 0  217.1 36.90000000000001 0  209.7 36 0  209.5 31.69999999999999 0  205.1 29.90000000000001 0  201.5 30.40000000000001 0  199.2 38.69999999999999 0  201.8 41.40000000000001 0  194.8 53.80000000000001 0  196.1 57.69999999999999 0  193 59 0  191.4 66.09999999999999 0  193.5 66.5 0  194.1 64.40000000000001 0  195.6 64.69999999999999 0  195.4 72.40000000000001 0  199.5 77.30000000000001 0  197.7 86.90000000000001 0  200.6 87.5 0  201.5 91 0  198 94.80000000000001 0  198.6 100 0  197.3 105.4 0  198 109.5 0  197 112.7 0  198.3 116.1 0  201.3 122 0  207.2 121 0  208.1 126.7 0  205.6 127.9 0  209.1 134.9 0  210.9 144.4 0  210.1 147.9 0  213 148.4 0  215.4 149.3 0  215.1 152.8 0  219.9 159.7 0  220.3 163.2 0  218.7 164.9 0  219.9 166.7 0  221.9 169.7 0  220 170.3 0  224.9 174.7 0  229.8 177.4 0  229.7 181 0  228 172.9 0  239 178 0  240.4 180 0  239 181.5 0  241.2 185.9 0  242.95 187.99 0  240.5875 187.9975 0  241.375 187.995 0  242.1625 187.9925 0  243.6090909090879 187.2636363636397 0  244.2681818181765 186.5372727272785 0  244.9272727272692 185.810909090913 0  245.5863636363531 185.0845454545571 0  246.245454545445 184.3581818181923 0  246.9045454545351 183.6318181818295 0  247.5636363636303 182.9054545454612 0  248.2227272727197 182.1790909090992 0  248.8818181818179 181.4527272727275 0  249.5409090909066 180.7263636363664 0  250.8666666666961 179.3666666666387 0  251.5333333334033 178.7333333332668 0  252.2000000000994 178.0999999999055 0  252.8666666668011 177.466666666539 0  253.5333333335083 176.8333333331671 0  254.2000000002044 176.1999999998058 0  254.8666666669005 175.5666666664445 0  255.5333333336077 174.9333333330727 0  256.2000000002685 174.2999999997449 0  256.8666666668457 173.6666666664966 0  257.5333333334283 173.033333333243 0  257.9000000000077 171.6500000000191 0  257.6000000000015 170.9000000000038 0  257.2999999999954 170.1499999999885 0  257.2230769230778 168.4769230769195 0  257.4461538461543 167.5538461538442 0  257.6692307692309 166.6307692307688 0  257.8923076923074 165.7076923076935 0  258.115384615384 164.7846153846181 0  258.3384615384605 163.8615384615427 0  258.5615384615395 162.9384615384572 0  258.784615384616 162.0153846153819 0  259.0076923076926 161.0923076923065 0  259.2307692307691 160.1692307692311 0  259.4538461538457 159.2461538461558 0  259.6769230769222 158.3230769230804 0  259.750000000001 156.512500000006 0  259.6000000000014 155.6250000000082 0  259.4500000000029 154.7375000000176 0  259.3000000000018 153.8500000000108 0  259.1500000000007 152.962500000004 0  259.0000000000004 152.0750000000026 0  258.849999999999 151.187499999994 0  258.9875000000052 149.4499999999846 0  259.275000000002 148.5999999999941 0  259.5624999999954 147.7500000000135 0  259.849999999995 146.900000000015 0  260.1374999999945 146.0500000000164 0  260.4249999999913 145.2000000000259 0  260.7124999999948 144.3500000000154 0  260.0700000000398 143.5899999999961 0  259.1400000000573 143.6799999999944 0  258.2100000000351 143.7699999999966 0  257.2800000000262 143.8599999999975 0  256.350000000011 143.9499999999989 0  255.4199999999881 144.0400000000011 0  254.4899999999726 144.1300000000026 0  253.5599999999944 144.2200000000005 0  252.6300000000009 144.3099999999999 0  251.4166666666658 143.4499999999971 0  251.1333333333388 142.5000000000182 0  250.8500000000015 141.5500000000051 0  250.5666666666612 140.5999999999818 0  250.2833333333342 139.6500000000029 0  249.2500000000005 138.5500000000001 0  248.5000000000011 138.4000000000002 0  247.7499999999995 138.2499999999999 0  246.7750000000005 137.1875000000023 0  246.5500000000021 136.2750000000085 0  246.3250000000036 135.3625000000147 0  246.1000000000042 134.450000000017 0  245.8750000000022 133.5375000000088 0  245.650000000003 132.6250000000124 0  245.4250000000046 131.7125000000187 0  245.619999999996 129.9200000000084 0  246.0399999999992 129.0400000000017 0  246.4599999999987 128.1600000000028 0  246.8800000000001 127.2799999999997 0  246.8399999999988 125.6199999999979 0  246.3799999999984 124.8399999999973 0  245.9199999999991 124.0599999999985 0  245.4600000000036 123.2800000000062 0  245.0000000000049 122.5000000000082 0  244.5400000000036 121.7200000000062 0  244.0800000000033 120.9400000000056 0  243.6200000000016 120.1600000000027 0  243.1600000000012 119.3800000000021 0  241.9812499999996 117.9187499999997 0  241.2625000000007 117.2375000000007 0  240.5437500000017 116.5562500000017 0  239.8250000000041 115.875000000004 0  239.1062500000066 115.1937500000063 0  238.3875000000076 114.5125000000072 0  237.6687500000087 113.8312500000082 0  236.9500000000083 113.1500000000079 0  236.231250000008 112.4687500000076 0  235.512500000009 111.7875000000085 0  234.7937500000045 111.1062500000043 0  234.0750000000042 110.4250000000039 0  233.3562500000066 109.7437500000062 0  232.6375000000021 109.062500000002 0  231.9187500000031 108.381250000003 0  230.5500000000004 107.0375000000004 0  229.9000000000021 106.3750000000021 0  229.2500000000038 105.7125000000039 0  228.6000000000041 105.0500000000042 0  227.9500000000018 104.3875000000018 0  227.2999999999952 103.7249999999951 0  226.6500000000024 103.0625000000024 0  226.0555555555555 101.4555555555556 0  226.1111111111111 100.5111111111111 0  226.1666666666667 99.56666666666668 0  226.2222222222222 98.62222222222223 0  226.2777777777778 97.67777777777778 0  226.3333333333333 96.73333333333335 0  226.3888888888889 95.78888888888889 0  226.4444444444445 94.84444444444446 0  226 93.22499999999999 0  225.5000000000026 92.55000000000358 0  225.0000000000026 91.87500000000358 0  224.5 90.31250000000068 0  224.5 89.4250000000097 0  224.5 88.53750000001317 0  224.5 87.65000000001388 0  224.5 86.76250000001457 0  224.5 85.87500000001248 0  224.5 84.9874999999993 0  225.1666666666659 83.41333333333409 0  225.8333333333319 82.72666666666818 0  226.4999999999978 82.04000000000228 0  227.1666666666649 81.35333333333514 0  227.8333333333301 80.66666666667 0  228.4999999999942 79.980000000006 0  229.1666666666601 79.2933333333401 0  229.8333333333316 78.60666666666847 0  230.4999999999975 77.92000000000257 0  231.1666666666644 77.23333333333572 0  231.8333333333295 76.54666666667057 0  232.4999999999972 75.86000000000287 0  233.1666666666681 75.17333333333181 0  233.8333333333368 74.48666666666306 0  233.7499999999995 73.16666666666629 0  233.0000000000018 72.53333333333488 0  232.2500000000014 71.90000000000116 0  231.5000000000009 71.26666666666743 0  230.7500000000005 70.63333333333372 0  229.233333333333 68.75000000000006 0  230.0666666666665 68.60000000000004 0  230.8999999999995 68.45000000000009 0  231.7333333333325 68.30000000000015 0  232.566666666667 68.14999999999995 0  232.5499999999897 68.50000000000607 0  231.7 69 0  230.8500000000103 69.49999999999393 0  227.8300000000008 68.16000000000106 0  227.2600000000064 67.42000000000837 0  226.6900000000077 66.68000000001001 0  226.1200000000024 65.94000000000314 0  225.5500000000108 65.20000000001409 0  224.9800000000098 64.46000000001268 0  224.4100000000007 63.72000000000098 0  223.8399999999971 62.97999999999621 0  223.2699999999993 62.23999999999915 0  222.753846153846 60.56923076923239 0  222.8076923076921 59.63846153846478 0  222.8615384615381 58.70769230769827 0  222.9153846153842 57.77692307693071 0  222.9692307692302 56.84615384616315 0  223.0230769230761 55.91538461539836 0  223.0769230769224 54.98461538462665 0  223.1307692307688 54.05384615385345 0  223.184615384615 53.12307692308312 0  223.2384615384611 52.19230769231556 0  223.2923076923071 51.26153846154906 0  223.3461538461533 50.33076923077847 0  222.8400000000024 48.62000000000327 0  222.2800000000047 47.84000000000661 0  221.7200000000005 47.06000000000071 0  221.1600000000003 46.28000000000039 0  221.4500000000116 45.87500000000512 0  222.3 46.25 0  223.1499999999884 46.62499999999488 0  223.5600000000055 46.22000000000981 0  223.1199999999987 45.43999999999767 0  222.6800000000061 44.66000000001075 0  222.2399999999969 43.8799999999944 0  221.6400000000004 42.16000000000253 0  221.4800000000009 41.22000000000548 0  221.3200000000014 40.28000000000801 0  221.1600000000009 39.34000000000556 0  220.25 38.45 0  219.4749999999999 39.30000000000165 0  219.45 40.09999999999999 0  219.425 40.90000000000112 0  219.0166666666641 40.89999999999463 0  218.6333333333375 40.10000000000875 0  218.2500000000016 39.30000000000339 0  217.8666666666635 38.49999999999351 0  217.483333333337 37.70000000000762 0  216.1750000000165 36.78750000000201 0  215.2500000000275 36.67500000000335 0  214.3250000000385 36.56250000000469 0  213.4000000000277 36.45000000000337 0  212.4750000000059 36.33750000000072 0  211.5499999999838 36.22499999999803 0  210.6249999999835 36.11249999999799 0  209.6600000000001 35.14000000000318 0  209.6200000000001 34.28000000000268 0  209.5800000000001 33.42000000000284 0  209.5399999999998 32.55999999999681 0  208.6200000000117 31.34000000000476 0  207.7400000000138 30.98000000000564 0  206.8600000000162 30.62000000000662 0  205.9800000000174 30.26000000000711 0  204.2000000000054 30.02499999999925 0  203.2999999999946 30.15000000000076 0  202.3999999999945 30.27500000000076 0  201.2444444444438 31.32222222222468 0  200.9888888888895 32.24444444
[...]
<PointData  Vectors="f_12"> 
<DataArray  type="Float64"  Name="f_12"  NumberOfComponents="3" format="ascii">5.1691401391945668e-01 3.8624934821173157e-01 7.3741790151157421e-02  5.2306391429868937e-01 4.1244110344830270e-01 7.5229326544052386e-02  5.3000415634148590e-01 4.4100414519896358e-01 7.6915390415296311e-02  5.3246639681127006e-01 4.5059842464297462e-01 7.7712790944195170e-02  5.4704419705083085e-01 5.0504990790049820e-01 8.2358861417452162e-02  5.5497283488856397e-01 5.3231892489219901e-01 8.5300727959650616e-02  5.5726619687450152e-01 5.4020940265041950e-01 8.5962904856440439e-02  5.6670713611500800e-01 5.6871285898474999e-01 9.1057400791208651e-02  5.7813170532929781e-01 6.0194175152351470e-01 9.6599898103774395e-02  5.8224814482170939e-01 6.1320394622727548e-01 9.8632288466594636e-02  5.9466659434396585e-01 6.4541258276389746e-01 1.0484618207662094e-01  5.9799220334157477e-01 6.5358613081486472e-01 1.0650304508944633e-01  5.9957751474559784e-01 6.5750303844489932e-01 1.0720112052345478e-01  6.1146826530223597e-01 6.8077136742682676e-01 1.1754743248916735e-01  6.2633227551689485e-01 6.9657511369663594e-01 1.4316228986128984e-01  6.1934947454765832e-01 6.3429344935436538e-01 1.9632657002747458e-01  5.9566728551474490e-01 5.4309930847949184e-01 2.1676826852892236e-01  5.3969404413021027e-01 2.1207863709455865e-01 3.0055265201441544e-01  7.2367870065117867e-01 3.0485805413848899e-01 8.6260675074894799e-01  7.4058839791680942e-01 3.5131287160574404e-01 8.4943223918681909e-01  7.3984067754491833e-01 3.4786506828718439e-01 8.5098378359378091e-01  7.5719031948642335e-01 3.9466780632902382e-01 8.3176292879788027e-01  7.5268943240269559e-01 4.5017288659498894e-01 7.6519593680329479e-01  6.1343166771798052e-01 6.0311867209056713e-01 2.0741878892933535e-01  6.9319896276882786e-01 6.3325716125669584e-01 4.0698222927825528e-01  5.9208716274670881e-01 5.8948030134707197e-01 1.5606519876339692e-01  5.8394936932330954e-01 5.6736051867384141e-01 1.4989013001062035e-01  5.5700402509431290e-01 5.1490106283328763e-01 1.0821556207457840e-01  5.5706628649281442e-01 5.1498776684819103e-01 1.0834764902743427e-01  5.6859849340764135e-01 5.3215688011688023e-01 1.3132283085121951e-01  5.3006999325483994e-01 4.1659788824670646e-01 9.6165069834984296e-02  5.0399115650514414e-01 2.9370588301632483e-01 9.3187490128396819e-02  4.8738290929519024e-01 2.1155965105348734e-01 8.8275150280277270e-02  4.8437527444841699e-01 1.9485258254927842e-01 8.7893767934517905e-02  4.8431537952589848e-01 1.9440224626383273e-01 8.7954340153512417e-02  5.0187971516196594e-01 2.7916126995863988e-01 9.5722743512077296e-02  5.3751905772554176e-01 4.0934087873126135e-01 1.2527819166725762e-01  7.1545547991543879e-01 6.8827938676771816e-01 3.8036968360283308e-01  7.4628087584428471e-01 6.3257121940864258e-01 5.1638550466727529e-01  7.6091939735276604e-01 6.0973649208389180e-01 5.7319019128532589e-01  7.7011613045204952e-01 4.9589706228435981e-01 7.3581767168431589e-01  7.6844968896770505e-01 4.9320251112250363e-01 7.3685288391439097e-01  7.6603609107945492e-01 5.6188198195474393e-01 6.4574965981830124e-01  7.6585648214619151e-01 5.3252411537460997e-01 6.8361614887083977e-01  7.4470354728229138e-01 3.9005087071524080e-01 8.1721540148929961e-01  6.2918962047118066e-01 1.6615762409369964e-01 6.9456586693058753e-01  5.1480512925170996e-01 1.2004195128209631e-01 2.5746724006943084e-01  5.1400296654892597e-01 1.5687053118565389e-01 2.2946912085408785e-01  5.1599020727996758e-01 2.8476002479177848e-01 1.4606004953038074e-01  5.1730253032824758e-01 3.5832269977656256e-01 9.6057356222653462e-02  5.2435894907868918e-01 4.0276242312290356e-01 8.7298898276844616e-02  5.2885632877347466e-01 4.3045199682838181e-01 8.1444940245238698e-02  5.3180696018375728e-01 4.4499835883920880e-01 8.0083185900083578e-02  5.3250624640535482e-01 4.4947133955656576e-01 7.8924158807659697e-02  5.3493000709659599e-01 4.5923728534101732e-01 7.9347053662277789e-02  5.4036172824177287e-01 4.7971165548731304e-01 8.1097694134104475e-02  5.5424567437944028e-01 5.2746676847635110e-01 8.7065114983053749e-02  5.5636530843262155e-01 5.3723116210286803e-01 8.5650855422584340e-02  5.5455847763767763e-01 5.3174652170134107e-01 8.4503250406612648e-02  5.5357813303541725e-01 5.2852485550892359e-01 8.4052383487376731e-02  5.5042393377670273e-01 5.1783027329381959e-01 8.2803242452211268e-02  5.4967051423095736e-01 5.1529072755787009e-01 8.2472107934188285e-02  5.5022225019292759e-01 5.1706586272020050e-01 8.2783088700958879e-02  5.5097450423687833e-01 5.1938923816409910e-01 8.3279575849262294e-02  5.4993723800053274e-01 5.1575023404815701e-01 8.2945357695863295e-02  5.4518001976136143e-01 4.9855820777141191e-01 8.1575377973205257e-02  5.4039688868995317e-01 4.8116610916438840e-01 7.9921083735038076e-02  5.3871419934749998e-01 4.7500589914092745e-01 7.9297807188146247e-02  5.3778080709053599e-01 4.7153249338502340e-01 7.8968908546145161e-02  5.3611540958300119e-01 4.6525794151946592e-01 7.8411333828121252e-02  5.3639934014335877e-01 4.6637407916426460e-01 7.8476323065769751e-02  5.3377402262381834e-01 4.5623566290204304e-01 7.7707255003695339e-02  5.2869031616450946e-01 4.3595273105330840e-01 7.6389551711565126e-02  5.2777846216943047e-01 4.3235089520835884e-01 7.6086965401004528e-02  5.3290060410248530e-01 4.5263190671346876e-01 7.7593738563717124e-02  5.2572907973818606e-01 4.2337866468640212e-01 7.5977624372356556e-02  5.2155852654589963e-01 4.0591760014558481e-01 7.4984128965399757e-02  5.1975513700108322e-01 3.9832789970199040e-01 7.4515415388862541e-02  5.1745783562876002e-01 3.8857766679844502e-01 7.3887117301936214e-02  5.1714538388622344e-01 3.8724416629481467e-01 7.3801650418964387e-02  5.1694266877161055e-01 3.8637239199644346e-01 7.3749331855159819e-02  5.1700576226129646e-01 3.8664354666980916e-01 7.3765781103704450e-02  5.1707964727985645e-01 3.8696138057775553e-01 7.3784808466482915e-02  5.1730895226581408e-01 3.8794669862167547e-01 7.3843837698954043e-02  5.1760403383655706e-01 3.8921332890436205e-01 7.3919512596932010e-02  5.1799142519554342e-01 3.9087495999802357e-01 7.4017826026435141e-02  5.1845395182273302e-01 3.9285682797002436e-01 7.4133709558575706e-02  5.1898205838047828e-01 3.9511669565100588e-01 7.4264248082062556e-02  5.1956345835293205e-01 3.9760075785441307e-01 7.4405737586518389e-02  5.2019523096485654e-01 4.0029438992353394e-01 7.4557632451989389e-02  5.2086615623820143e-01 4.0314834662240223e-01 7.4716956148767485e-02  5.2156616947950807e-01 4.0611824077467806e-01 7.4881198958132916e-02  5.2229803888651938e-01 4.0921326827540838e-01 7.5051837606207233e-02  5.2378291125220033e-01 4.1546160936572718e-01 7.5394822016761967e-02  5.2447814787026537e-01 4.1837207040038693e-01 7.5554408773986462e-02  5.2516580569970306e-01 4.2123913680642006e-01 7.5713076182017711e-02  5.2584434958826198e-01 4.2405633895670514e-01 7.5870878534593136e-02  5.2650864587441237e-01 4.2680233246104005e-01 7.6026972261823381e-02  5.2715308797919269e-01 4.2945437105661338e-01 7.6180391577173615e-02  5.2777704927108349e-01 4.3200928589876259e-01 7.6332056416204511e-02  5.2837067174656671e-01 4.3442747572912155e-01 7.6479882263691248e-02  5.2891984382326507e-01 4.3665273690758771e-01 7.6620459190590504e-02  5.2940665461511960e-01 4.3861448963485394e-01 7.6749197017580803e-02  5.2979505522812687e-01 4.4017096784176185e-01 7.6855674711770267e-02  5.3021892728076347e-01 4.4184654903330967e-01 7.6984438281934631e-02  5.3068705614473222e-01 4.4367668648189479e-01 7.7136713971259721e-02  5.3139122846491682e-01 4.4642105423479217e-01 7.7365965930158681e-02  5.3385915794622085e-01 4.5599002938374972e-01 7.8155121043441064e-02  5.3510218404163534e-01 4.6077644381656280e-01 7.8545433281277055e-02  5.3631059952186688e-01 4.6540259833585645e-01 7.8921928663336721e-02  5.3750479395815232e-01 4.6994635870805956e-01 7.9292461792852459e-02  5.3868739521196207e-01 4.7441699622918493e-01 7.9659158195318464e-02  5.3985633810132994e-01 4.7880616700074358e-01 8.0022609581003240e-02  5.4100729196577757e-01 4.8309741449418103e-01 8.0382557493012097e-02  5.4213599779055155e-01 4.8727536406101213e-01 8.0738706870736976e-02  5.4323424100707784e-01 4.9131016166749253e-01 8.1089263862801561e-02  5.4429951877348903e-01 4.9519322333387450e-01 8.1434857590256801e-02  5.4531426273342121e-01 4.9886369772010425e-01 8.1769741651689820e-02  5.4625863133830677e-01 5.0225278062614176e-01 8.2087911107082440e-02  5.4781140394980365e-01 5.0775429634428237e-01 8.2633643848767327e-02  5.4872706664006909e-01 5.1095850088453509e-01 8.2967951029656567e-02  5.4971553910350079e-01 5.1439338853177008e-01 8.3333574200874214e-02  5.5074177557818049e-01 5.1793434274562045e-01 8.3717532159180361e-02  5.5178546774994064e-01 5.2151165599450222e-01 8.4110383886311244e-02  5.5283105815504596e-01 5.2507421700534085e-01 8.4504050519708565e-02  5.5387932633239223e-01 5.2862690106824417e-01 8.4896976300880875e-02  5.5583481782599786e-01 5.3523960408664739e-01 8.5598920452904029e-02  5.5642443923114737e-01 5.3724051078120150e-01 8.5793006466212074e-02  5.5681084862419028e-01 5.3856450897901509e-01 8.5905938542209251e-02  5.5706250413784630e-01 5.3943816308398873e-01 8.5968148230961064e-02  5.5720226237966541e-01 5.3993770111100448e-01 8.5989868265707148e-02  5.5726195352588070e-01 5.4016606930620581e-01 8.5986203422957569e-02  5.5727166017078411e-01 5.4021967406082727e-01 8.5971589106242308e-02  5.5729551246011599e-01 5.4029496450128045e-01 8.5983561586672211e-02  5.5741740652344307e-01 5.4065844179624656e-01 8.6062684431356479e-02  5.5766831443609377e-01 5.4141541912683422e-01 8.6217202093260753e-02  5.5807100930886411e-01 5.4263635417846168e-01 8.6457787332253330e-02  5.5865782647041673e-01 5.4442103921047724e-01 8.6798650722621079e-02  5.5945519075625816e-01 5.4684865349547773e-01 8.7250250999564238e-02  5.6049489129854957e-01 5.5001062331235506e-01 8.7825403785034770e-02  5.6183920834224266e-01 5.5408749628199883e-01 8.8550641840934932e-02  5.6366099264198544e-01 5.5958553591150417e-01 8.9506159672589194e-02  5.7020951439716150e-01 5.7910251857495076e-01 9.2790336302327012e-02  5.7261775294976458e-01 5.8615704668311619e-01 9.3961584303720189e-02  5.7459834828877498e-01 5.9188999560704625e-01 9.4912622045569647e-02  5.7621108057443104e-01 5.9650867389233608e-01 9.5681908166295807e-02  5.7744431381994621e-01 6.0000823015785476e-01 9.6269962407593279e-02  5.7851343149030077e-01 6.0300152938171536e-01 9.6786361609444843e-02  5.7929987105153313e-01 6.0517238794920813e-01 9.7172700849471549e-02  5.8044359040555360e-01 6.0830460818787557e-01 9.7737558123378795e-02  5.8468983899429539e-01 6.1975686656227025e-01 9.9849422275783181e-02  5.8650266457241307e-01 6.2455659622822557e-01 1.0075681795038476e-01  5.8807692317034244e-01 6.2867438927803254e-01 1.0154603758053021e-01  5.8950391705525962e-01 6.3236664124345021e-01 1.0226159794726861e-01  5.9082433622353692e-01 6.3574903409608108e-01 1.0292344659895683e-01  5.9207246889776877e-01 6.3891678870447532e-01 1.0354855907292394e-01  5.9329729842678347e-01 6.4199807199386905e-01 1.0416138320227639e-01  5.9590097872767445e-01 6.4846578122142440e-01 1.0546400391081606e-01  5.9673726457235376e-01 6.5052095708359137e-01 1.0588167943564010e-01  5.9735007968609943e-01 6.5202005499542581e-01 1.0618647001112065e-01  5.9777529683072250e-01 6.5305737373567885e-01 1.0639673888474024e-01  5.9812818873012807e-01 6.5391896602651089e-01 1.0656749046417208e-01  5.9831192646625464e-01 6.5437014137603533e-01 1.0665246298545851e-01  5.9850590039503537e-01 6.5484772098319632e-01 1.0674027345538581e-01  5.9869937636845605e-01 6.5532527096943360e-01 1.0682613543523820e-01  5.9887774359042678e-01 6.5576713961156086e-01 1.0690325311918081e-01  5.9904351309753279e-01 6.5617890917065291e-01 1.0697349585292394e-01  5.9919727316790683e-01 6.5656141566699433e-01 1.0703788126406431e-01  5.9933617137956186e-01 6.5690709687890425e-01 1.0709579809731175e-01  5.9946469977025574e-01 6.5722567285888611e-01 1.0715066424869016e-01  5.9969544393455798e-01 6.5778900892191716e-01 1.0725803528039127e-01  5.9984347900436419e-01 6.5814015399547454e-01 1.0733723490515910e-01  6.0002321026424332e-01 6.5855641370395823e-01 1.0744315707395927e-01  6.0025612857674537e-01 6.5908375597473501e-01 1.0759163137831856e-01  6.0055308893261072e-01 6.5974280668792606e-01 1.0779281661483531e-01  6.0092662479923742e-01 6.6055661749035333e-01 1.0805891996364218e-01  6.0139533429838421e-01 6.6156105802802989e-01 1.0840626562648480e-01  6.0197251889876380e-01 6.6277824182454625e-01 1.0884896613669945e-01  6.0266307641751204e-01 6.6420983990680382e-01 1.0939690867877766e-01  6.0348796585578313e-01 6.6589131443719929e-01 1.1007091481005195e-01  6.0445266262509134e-01 6.6782212527860274e-01 1.1088307791187987e-01  6.0555423406880549e-01 6.6998099225324070e-01 1.1184165512434134e-01  6.0681897123880868e-01 6.7240657990386388e-01 1.1297638586465319e-01  6.0821359994284296e-01 6.7500318652103808e-01 1.1428384304641367e-01  6.0976860356167784e-01 6.7781297367275983e-01 1.1580187506196372e-01  6.1317663053792948e-01 6.8361805175368395e-01 1.1940421866245711e-01  6.1494172565816663e-01 6.8640274118183275e-01 1.2145952074539597e-01  6.1674960017790170e-01 6.8906511490926448e-01 1.2374276487402742e-01  6.1860080937882278e-01 6.9153828640718140e-01 1.2633365226525139e-01  6.2044316365466501e-01 6.9366976392664570e-01 1.2926430060919666e-01  6.2228851229098048e-01 6.9536075456700419e-01 1.3269680082454083e-01  6.2417631159154352e-01 6.9643255063078946e-01 1.3697585917795865e-01  6.2824210460161456e-01 6.9532167291457170e-01 1.5033607434705437e-01  6.2925232839757261e-01 6.9277362761260985e-01 1.5646197251983682e-01  6.2958670006384621e-01 6.8873341754186135e-01 1.6243758732800964e-01  6.2926564041593913e-01 6.8306111977254902e-01 1.6846405918694063e-01  6.2828597085310101e-01 6.7567099964302468e-01 1.7457668632686688e-01  6.2665837789566137e-01 6.6656101576969751e-01 1.8071903594288188e-01  6.2444087802866610e-01 6.5592069098881445e-01 1.8672303546416391e-01  6.2180683348981913e-01 6.4439852483700222e-01 1.9223114758235924e-01  6.1655947244274523e-01 6.2361633825784679e-01 1.9961899955611329e-01  6.1179893472517000e-01 6.0554695559552429e-01 2.0441163726913841e-01  6.0520110769342761e-01 5.8036786448178035e-01 2.0996811849713920e-01  5.8468130333829793e-01 4.9805832169176611e-01 2.2384830776204109e-01  5.7523754765031054e-01 4.5710557660854223e-01 2.2945619322127042e-01  5.6650094153500985e-01 4.1654941030190168e-01 2.3474785800695705e-01  5.5846308476050877e-01 3.7583387870967805e-01 2.4061231865806401e-01  5.5140459665375463e-01 3.3523928904400579e-01 2.4821212834836542e-01  5.4557765568912897e-01 2.9511597677299611e-01 2.5853595979772287e-01  5.4145858403310942e-01 2.5558825873232849e-01 2.7378784182073157e-01  5.4231292099323813e-01 1.7692079402704070e-01 3.3825813435885055e-01  5.4798804369560994e-01 1.5714452125591979e-01 3.7696179978940092e-01  5.5650541586067881e-01 1.4556019269207687e-01 4.2165414597950762e-01  5.6781679212081948e-01 1.4029872718170835e-01 4.7342074487264962e-01  5.8180749062305714e-01 1.4066368885905209e-01 5.3166898113030192e-01  5.9821479898049434e-01 1.4646187696991783e-01 5.9430475321898157e-01  6.1657768147446002e-01 1.5774326915507572e-01 6.5780043138605260e-01  6.3615292769030063e-01 1.7441824309592935e-01 7.1749569090064769e-01  6.5593936081808069e-01 1.9579906052216836e-01 7.6881059089050174e-01  6.7478073340068312e-01 2.2042897344313361e-01 8.0835942929995386e-01  6.9157927561899912e-01 2.4598163477400800e-01 8.3533760285818737e-01  7.0537056063161807e-01 2.6962125501273648e-01 8.5113403670687615e-01  7.1549307998895140e-01 2.8855319835222809e-01 8.5886032547073288e-01  7.2162428862698258e-01 3.0068985926856362e-01 8.6187459455554094e-01  7.2368101973993726e-01 3.0501793310528158e-01 8.6240042489716406e-01  7.2439095370784479e-01 3.0695470698278865e-01 8.6196760297955410e-01  7.2596442063819300e-01 3.1109079375207843e-01 8.6114809310978224e-01  7.2845891315847955e-01 3.1767122702514944e-01 8.5967511219500004e-01  7.3241725395751800e-01 3.2818340658267736e-01 8.5689547810316513e-01  7.4301930306076869e-01 3.5648199915473294e-01 8.4834280014992036e-01  7.4692445912599703e-01 3.6647974284260953e-01 8.4467875895376765e-01  7.5109741178404188e-01 3.7769169461722890e-01 8.3996765857235356e-01  7.5425551695466764e-01 3.8640577272648841e-01 8.3591167763187790e-01  7.5624606330258093e-01 3.9199099271145976e-01 8.3314207707296306e-01  7.5605556540394203e-01 3.9145194652538567e-01 8.3341794149002979e-01  7.5336504399264581e-01 3.8392300879510705e-01 8.3710896016149627e-01  7.4877041178433268e-01 3.7137365807393613e-01 8.4264543824885940e-01  7.4252761437828263e-01 3.5833938502482848e-01 8.4602789091770148e-01  7.4528698705162200e-01 3.6785497637204806e-01 8.4125612981926146e-01  7.4805904417264546e-01 3.7810010262048444e-01 8.3547944399481000e-01  7.5049987155515463e-01 3.8829461948418081e-01 8.2895485675936031e-01  7.5243574305284910e-01 3.9810616362342849e-01 8.2179774792115956e-01  7.5377514006572366e-01 4.0741710858327096e-01 8.1405981240392333e-01  7.5448878207035430e-01 4.1642044853746263e-01 8.0553033018965037e-01  7.5459377416146567e-01 4.2564664476373948e-01 7.9566972039090833e-01  7.5405610438821369e-01 4.3598049686975632e-01 7.8340194886032744e-01  7.5076277790488410e-01 4.6671660748950283e-01 7.4291153646549923e-01  7.4870932420094194e-01 4.8147689222861006e-01 7.2196556062908357e-01  7.4632144373675979e-01 4.9653744457487237e-01 6.9956737755937393e-01  7.4353205830151481e-01 5.1232034157472528e-01 6.7501910615688765e-01  7.4024259325759134e-01 5.2885692363891124e-01 6.4803642709715381e-01  7.3635632616643154e-01 5.4590409972555320e-01 6.1867497507966263e-01  7.3177353828303848e-01 5.6302296222870829e-01 5.8725622838814218e-01  7.2642410901381949e-01 5.7964099628551857e-01 5.5435107444947718e-01  7.2029711091118398e-01 5.9512480463037820e-01 5.2074557664907539e-01  7.1348042794605981e-01 6.0880957030043337e-01 4.8747446966277636e-01  7.0619166513622422e-01 6.2011251360119779e-01 4.5574701077793173e-01  6.9890296797360874e-01 6.2852879985545596e-01 4.2727040097638469e-01  6.8617931586373659e-01 6.3587928622473788e-01 3.8524561510758720e-01  6.7534491718214118e-01 6.3689378069780911e-01 3.5440409777278786e-01  6.6116534880454858e-01 6.3421846910846913e-01 3.1723332472591392e-01  6.4255174452356478e-01 6.2518714626752581e-01 2.7241222772283319e-01  5.9855467537766549e-01 5.9232642791300216e-01 1.7294070417184615e-01  5.9412292291904123e-01 5.8996434807340870e-01 1.6181058504272622e-01  5.9256686707833683e-01 5.8953776452708651e-01 1.5748331433882326e-01  5.9253490624482985e-01 5.8952763115419304e-01 1.5739474824965868e-01  5.9333776836551211e-01 5.8921619851204787e-01 1.6011131721754734e-01  5.9337709124842275e-01 5.8703743564919275e-01 1.6209218405115292e-01  5.9061416111233733e-01 5.8038365334279673e-01 1.5933674991656074e-01  5.7501198314430546e-01 5.5032427788455185e-01 1.3638759500360037e-01  5.6757104454353180e-01 5.3578273424024880e-01 1.2497870249131124e-01  5.6192448080590152e-01 5.2469231388538917e-01 1.1607487211920771e-01  5.5830869463086197e-01 5.1751829960688589e-01 1.1029960129154980e-01  5.5711135168863568e-01 5.1509475258858295e-01 1.0840517055475780e-01  5.5799131821272441e-01 5.1676943429553057e-01 1.0988992351847814e-01  5.6046541152836193e-01 5.2136797792388645e-01 1.1412851339395373e-01  5.6413132356640594e-01 5.2735642946720207e-01 1.2102928302761833e-01  5.5976480968701969e-01 5.0613815580194632e-01 1.2427289737461987e-01  5.5127956402534806e-01 4.8201085781954744e-01 1.1601408997196559e-01  5.4364444164932013e-01 4.5954119723673159e-01 1.0854497079889580e-01  5.3725976227895389e-01 4.3991626567764441e-01 1.0250891622858486e-01  5.3250552566090770e-01 4.2470648056954174e-01 9.8215018336642659e-02  5.2843329399675920e-01 4.1043465249228994e-01 9.5244107307573683e-02  5.2612064244023937e-01 4.0104558433979115e-01 9.4364388736596347e-02  5.2353077826