<?xml version="1.0"?>
<VTKFile type="UnstructuredGrid"  version="0.1"  >
<UnstructuredGrid>
<Piece  NumberOfPoints="7288" NumberOfCells="14083">
<Points>
<DataArray  type="Float64"  NumberOfComponents="3"  format="ascii">239.8 188 0  250.2 180 0  258.2 172.4 0  257 169.4 0  259.9 157.4 0  258.7 150.3 0  261 143.5 0  251.7 144.4 0  250 138.7 0  247 138.1 0  245.2 130.8 0  247.3 126.4 0  242.7 118.6 0  231.2 107.7 0  226 102.4 0  226.5 93.90000000000001 0  224.5 91.19999999999999 0  224.5 84.09999999999999 0  234.5 73.80000000000001 0  228.4 68.90000000000001 0  230 70 0  233.4 68 0  222.7 61.5 0  220.6 45.5 0  223.4 49.40000000000001 0  224 47 0  221.8 43.09999999999999 0  221 38.40000000000001 0  219.5 38.5 0  219.4 41.69999999999999 0  217.1 36.90000000000001 0  209.7 36 0  209.5 31.69999999999999 0  205.1 29.90000000000001 0  201.5 30.40000000000001 0  199.2 38.69999999999999 0  201.8 41.40000000000001 0  194.8 53.80000000000001 0  196.1 57.69999999999999 0  193 59 0  191.4 66.09999999999999 0  193.5 66.5 0  194.1 64.40000000000001 0  195.6 64.69999999999999 0  195.4 72.40000000000001 0  199.5 77.30000000000001 0  197.7 86.90000000000001 0  200.6 87.5 0  201.5 91 0  198 94.80000000000001 0  198.6 100 0  197.3 105.4 0  198 109.5 0  197 112.7 0  198.3 116.1 0  201.3 122 0  207.2 121 0  208.1 126.7 0  205.6 127.9 0  209.1 134.9 0  210.9 144.4 0  210.1 147.9 0  213 148.4 0  215.4 149.3 0  215.1 152.8 0  219.9 159.7 0  220.3 163.2 0  218.7 164.9 0  219.9 166.7 0  221.9 169.7 0  220 170.3 0  224.9 174.7 0  229.8 177.4 0  229.7 181 0  228 172.9 0  239 178 0  240.4 180 0  239 181.5 0  241.2 185.9 0  242.95 187.99 0  240.5875 187.9975 0  241.375 187.995 0  242.1625 187.9925 0  243.6090909090879 187.2636363636397 0  244.2681818181765 186.5372727272785 0  244.9272727272692 185.810909090913 0  245.5863636363531 185.0845454545571 0  246.245454545445 184.3581818181923 0  246.9045454545351 183.6318181818295 0  247.5636363636303 182.9054545454612 0  248.2227272727197 182.1790909090992 0  248.8818181818179 181.4527272727275 0  249.5409090909066 180.7263636363664 0  250.8666666666961 179.3666666666387 0  251.5333333334033 178.7333333332668 0  252.2000000000994 178.0999999999055 0  252.8666666668011 177.466666666539 0  253.5333333335083 176.8333333331671 0  254.2000000002044 176.1999999998058 0  254.8666666669005 175.5666666664445 0  255.5333333336077 174.9333333330727 0  256.2000000002685 174.2999999997449 0  256.8666666668457 173.6666666664966 0  257.5333333334283 173.033333333243 0  257.9000000000077 171.6500000000191 0  257.6000000000015 170.9000000000038 0  257.2999999999954 170.1499999999885 0  257.2230769230778 168.4769230769195 0  257.4461538461543 167.5538461538442 0  257.6692307692309 166.6307692307688 0  257.8923076923074 165.7076923076935 0  258.115384615384 164.7846153846181 0  258.3384615384605 163.8615384615427 0  258.5615384615395 162.9384615384572 0  258.784615384616 162.0153846153819 0  259.0076923076926 161.0923076923065 0  259.2307692307691 160.1692307692311 0  259.4538461538457 159.2461538461558 0  259.6769230769222 158.3230769230804 0  259.750000000001 156.512500000006 0  259.6000000000014 155.6250000000082 0  259.4500000000029 154.7375000000176 0  259.3000000000018 153.8500000000108 0  259.1500000000007 152.962500000004 0  259.0000000000004 152.0750000000026 0  258.849999999999 151.187499999994 0  258.9875000000052 149.4499999999846 0  259.275000000002 148.5999999999941 0  259.5624999999954 147.7500000000135 0  259.849999999995 146.900000000015 0  260.1374999999945 146.0500000000164 0  260.4249999999913 145.2000000000259 0  260.7124999999948 144.3500000000154 0  260.0700000000398 143.5899999999961 0  259.1400000000573 143.6799999999944 0  258.2100000000351 143.7699999999966 0  257.2800000000262 143.8599999999975 0  256.350000000011 143.9499999999989 0  255.4199999999881 144.0400000000011 0  254.4899999999726 144.1300000000026 0  253.5599999999944 144.2200000000005 0  252.6300000000009 144.3099999999999 0  251.4166666666658 143.4499999999971 0  251.1333333333388 142.5000000000182 0  250.8500000000015 141.5500000000051 0  250.5666666666612 140.5999999999818 0  250.2833333333342 139.6500000000029 0  249.2500000000005 138.5500000000001 0  248.5000000000011 138.4000000000002 0  247.7499999999995 138.2499999999999 0  246.7750000000005 137.1875000000023 0  246.5500000000021 136.2750000000085 0  246.3250000000036 135.3625000000147 0  246.1000000000042 134.450000000017 0  245.8750000000022 133.5375000000088 0  245.650000000003 132.6250000000124 0  245.4250000000046 131.7125000000187 0  245.619999999996 129.9200000000084 0  246.0399999999992 129.0400000000017 0  246.4599999999987 128.1600000000028 0  246.8800000000001 127.2799999999997 0  246.8399999999988 125.6199999999979 0  246.3799999999984 124.8399999999973 0  245.9199999999991 124.0599999999985 0  245.4600000000036 123.2800000000062 0  245.0000000000049 122.5000000000082 0  244.5400000000036 121.7200000000062 0  244.0800000000033 120.9400000000056 0  243.6200000000016 120.1600000000027 0  243.1600000000012 119.3800000000021 0  241.9812499999996 117.9187499999997 0  241.2625000000007 117.2375000000007 0  240.5437500000017 116.5562500000017 0  239.8250000000041 115.875000000004 0  239.1062500000066 115.1937500000063 0  238.3875000000076 114.5125000000072 0  237.6687500000087 113.8312500000082 0  236.9500000000083 113.1500000000079 0  236.231250000008 112.4687500000076 0  235.512500000009 111.7875000000085 0  234.7937500000045 111.1062500000043 0  234.0750000000042 110.4250000000039 0  233.3562500000066 109.7437500000062 0  232.6375000000021 109.062500000002 0  231.9187500000031 108.381250000003 0  230.5500000000004 107.0375000000004 0  229.9000000000021 106.3750000000021 0  229.2500000000038 105.7125000000039 0  228.6000000000041 105.0500000000042 0  227.9500000000018 104.3875000000018 0  227.2999999999952 103.7249999999951 0  226.6500000000024 103.0625000000024 0  226.0555555555555 101.4555555555556 0  226.1111111111111 100.5111111111111 0  226.1666666666667 99.56666666666668 0  226.2222222222222 98.62222222222223 0  226.2777777777778 97.67777777777778 0  226.3333333333333 96.73333333333335 0  226.3888888888889 95.78888888888889 0  226.4444444444445 94.84444444444446 0  226 93.22499999999999 0  225.5000000000026 92.55000000000358 0  225.0000000000026 91.87500000000358 0  224.5 90.31250000000068 0  224.5 89.4250000000097 0  224.5 88.53750000001317 0  224.5 87.65000000001388 0  224.5 86.76250000001457 0  224.5 85.87500000001248 0  224.5 84.9874999999993 0  225.1666666666659 83.41333333333409 0  225.8333333333319 82.72666666666818 0  226.4999999999978 82.04000000000228 0  227.1666666666649 81.35333333333514 0  227.8333333333301 80.66666666667 0  228.4999999999942 79.980000000006 0  229.1666666666601 79.2933333333401 0  229.8333333333316 78.60666666666847 0  230.4999999999975 77.92000000000257 0  231.1666666666644 77.23333333333572 0  231.8333333333295 76.54666666667057 0  232.4999999999972 75.86000000000287 0  233.1666666666681 75.17333333333181 0  233.8333333333368 74.48666666666306 0  233.7499999999995 73.16666666666629 0  233.0000000000018 72.53333333333488 0  232.2500000000014 71.90000000000116 0  231.5000000000009 71.26666666666743 0  230.7500000000005 70.63333333333372 0  229.233333333333 68.75000000000006 0  230.0666666666665 68.60000000000004 0  230.8999999999995 68.45000000000009 0  231.7333333333325 68.30000000000015 0  232.566666666667 68.14999999999995 0  232.5499999999897 68.50000000000607 0  231.7 69 0  230.8500000000103 69.49999999999393 0  227.8300000000008 68.16000000000106 0  227.2600000000064 67.42000000000837 0  226.6900000000077 66.68000000001001 0  226.1200000000024 65.94000000000314 0  225.5500000000108 65.20000000001409 0  224.9800000000098 64.46000000001268 0  224.4100000000007 63.72000000000098 0  223.8399999999971 62.97999999999621 0  223.2699999999993 62.23999999999915 0  222.753846153846 60.56923076923239 0  222.8076923076921 59.63846153846478 0  222.8615384615381 58.70769230769827 0  222.9153846153842 57.77692307693071 0  222.9692307692302 56.84615384616315 0  223.0230769230761 55.91538461539836 0  223.0769230769224 54.98461538462665 0  223.1307692307688 54.05384615385345 0  223.184615384615 53.12307692308312 0  223.2384615384611 52.19230769231556 0  223.2923076923071 51.26153846154906 0  223.3461538461533 50.33076923077847 0  222.8400000000024 48.62000000000327 0  222.2800000000047 47.84000000000661 0  221.7200000000005 47.06000000000071 0  221.1600000000003 46.28000000000039 0  221.4500000000116 45.87500000000512 0  222.3 46.25 0  223.1499999999884 46.62499999999488 0  223.5600000000055 46.22000000000981 0  223.1199999999987 45.43999999999767 0  222.6800000000061 44.66000000001075 0  222.2399999999969 43.8799999999944 0  221.6400000000004 42.16000000000253 0  221.4800000000009 41.22000000000548 0  221.3200000000014 40.28000000000801 0  221.1600000000009 39.34000000000556 0  220.25 38.45 0  219.4749999999999 39.30000000000165 0  219.45 40.09999999999999 0  219.425 40.90000000000112 0  219.0166666666641 40.89999999999463 0  218.6333333333375 40.10000000000875 0  218.2500000000016 39.30000000000339 0  217.8666666666635 38.49999999999351 0  217.483333333337 37.70000000000762 0  216.1750000000165 36.78750000000201 0  215.2500000000275 36.67500000000335 0  214.3250000000385 36.56250000000469 0  213.4000000000277 36.45000000000337 0  212.4750000000059 36.33750000000072 0  211.5499999999838 36.22499999999803 0  210.6249999999835 36.11249999999799 0  209.6600000000001 35.14000000000318 0  209.6200000000001 34.28000000000268 0  209.5800000000001 33.42000000000284 0  209.5399999999998 32.55999999999681 0  208.6200000000117 31.34000000000476 0  207.7400000000138 30.98000000000564 0  206.8600000000162 30.62000000000662 0  205.9800000000174 30.26000000000711 0  204.2000000000054 30.02499999999925 0  203.2999999999946 30.15000000000076 0  202.3999999999945 30.27500000000076 0  201.2444444444438 31.32222222222468 0  200.9888888888895 32.24444444
[...]
<PointData  Vectors="f_12"> 
<DataArray  type="Float64"  Name="f_12"  NumberOfComponents="3" format="ascii">7.3537679815208634e-01 7.9465179317856349e-01 2.5552015925755683e-01  7.3986482646108920e-01 7.9048251852702889e-01 2.6889223131090928e-01  7.3586020616119396e-01 7.9131148151979058e-01 2.6140018653751823e-01  7.3205733423784403e-01 7.9132384732827898e-01 2.5526927086661944e-01  6.9341710807644041e-01 7.8091627888042958e-01 1.9953090581389230e-01  6.5893653665055230e-01 7.5390751981617743e-01 1.5809332251235680e-01  6.3938562032963153e-01 7.3333464360514633e-01 1.3476898237045662e-01  6.3614235398175356e-01 7.2308782723340548e-01 1.3810911445651430e-01  6.1021599478619293e-01 6.7563033489430013e-01 1.1962886820395718e-01  5.9845819452212290e-01 6.4938777637473544e-01 1.1206995637311691e-01  5.8087929486262424e-01 6.0310562709065274e-01 1.0484665891772223e-01  5.9846556076462287e-01 6.3295330891846369e-01 1.3052560771148278e-01  6.7732300019850633e-01 6.2061064533916255e-01 3.8527776846732076e-01  5.7558487154034998e-01 2.4512517300351513e-01 4.3921958346823503e-01  6.3443576208862462e-01 4.9421609056918675e-01 4.1129122711839722e-01  6.3505844316706817e-01 6.7455133530972100e-01 1.9561118572174116e-01  6.0764749592730671e-01 6.3697239697724517e-01 1.5347622282357756e-01  5.3239830116109343e-01 4.2455582793253216e-01 9.6834177173577410e-02  4.8412472280300067e-01 1.9487011731515888e-01 8.7092901525667440e-02  4.8856450220655495e-01 2.2341399226473821e-01 8.5248136202413005e-02  4.8603765376505248e-01 2.0804336817464505e-01 8.5872100988359124e-02  4.8407420012608482e-01 1.9561741501772428e-01 8.6493606502454246e-02  5.3791484537629619e-01 4.2929762475277816e-01 1.1284677248656655e-01  5.7222518731722383e-01 2.1412765674948306e-01 4.4830946426291635e-01  5.9481921482441746e-01 4.0863639008784464e-01 3.5960326571162543e-01  5.6042463270148946e-01 1.6422575941846526e-01 4.3846092723934199e-01  5.6835797515376152e-01 1.6403295214910513e-01 4.7309596103876528e-01  5.7317244753051466e-01 1.3308016893508498e-01 5.1790348446472456e-01  5.7318941310880656e-01 1.3321772364422016e-01 5.1787498279122879e-01  5.7548104797309818e-01 1.5689735547441522e-01 5.0959301960059822e-01  6.1026295247337348e-01 1.7010908176470169e-01 6.4686535904664444e-01  6.7651623223611346e-01 3.6052004062952075e-01 6.9292768097638646e-01  7.2670052447785072e-01 5.7183585062921594e-01 5.6876612319604225e-01  7.3431662610912551e-01 6.3834859135303335e-01 4.9136455094670495e-01  7.3418545135613000e-01 6.4418362601970125e-01 4.8280673599579466e-01  6.8810972126663750e-01 4.3568261076979697e-01 6.4831479011564885e-01  6.3319268052767808e-01 3.5312422654347975e-01 5.5719818925468656e-01  5.3431037075393217e-01 4.1764078301794477e-01 1.1135166523982173e-01  5.2243949061451356e-01 3.8783184524547465e-01 9.1915501145385797e-02  5.1347040819071721e-01 3.5882826980051408e-01 8.2018199431340366e-02  5.0325782727217383e-01 3.1899508519593112e-01 7.4567300179841645e-02  5.0411565157232452e-01 3.2276879835480105e-01 7.4929794376815143e-02  5.0962224379159260e-01 3.4497401425704038e-01 7.8529039772575096e-02  5.0859748769244595e-01 3.4109080299093053e-01 7.7674829549420371e-02  5.0706186392681907e-01 3.3692359337248590e-01 7.5224041867189964e-02  5.2365043680638401e-01 4.0740548168239588e-01 8.0748558223666042e-02  5.5912985773439750e-01 5.3553031666310080e-01 9.6348323958740434e-02  5.6927656061862397e-01 5.6199019762769908e-01 1.0541451894239487e-01  6.0384386736098750e-01 6.3621141946625615e-01 1.4326383316904642e-01  6.2372600015195412e-01 6.5314880566119415e-01 1.8830067020527630e-01  6.1093403247625400e-01 5.7446820755850958e-01 2.3782020348330130e-01  5.6833800706106929e-01 3.9477603626618180e-01 2.6506484917995426e-01  5.4097885141464208e-01 2.4504103172061989e-01 2.8287878125422050e-01  5.3327144737475352e-01 1.6329999377842191e-01 3.1299854312270892e-01  5.4487899283702090e-01 1.2967645780106873e-01 3.8830650975792486e-01  5.8234801437801387e-01 1.1793781892580879e-01 5.6497159897656213e-01  5.9408775848978956e-01 1.6926151516989507e-01 5.7719314511385522e-01  6.7635982152214047e-01 4.8437406144469969e-01 5.5520086394753609e-01  6.8409252637898821e-01 5.7486030462020776e-01 4.6499838003041394e-01  6.2049762330401659e-01 6.1763064264173662e-01 2.1577484446170198e-01  5.3449865452614143e-01 4.5525332775362592e-01 8.1176654378572438e-02  5.3251583395394697e-01 4.4877092678697772e-01 7.9563191882028442e-02  5.3857210098874109e-01 4.6944856116697131e-01 8.3273916427149999e-02  5.5729056547667244e-01 5.3026709587837295e-01 9.4132189030919272e-02  5.7852227797361300e-01 5.9415988927095720e-01 1.0536737956565342e-01  6.2532137428922407e-01 7.0193457547971461e-01 1.3311890237935634e-01  6.4356699759760261e-01 7.3457389054196875e-01 1.4410620288787324e-01  6.4722191219151559e-01 7.4115299539075108e-01 1.4558387881690146e-01  6.5101410555721873e-01 7.4613959808254138e-01 1.4890794956915224e-01  6.5998555859912378e-01 7.5606928591609046e-01 1.5825382175240807e-01  6.5610390387981676e-01 7.5259940801389280e-01 1.5342060776164781e-01  6.7738388707965580e-01 7.7102341164563515e-01 1.7913283281812906e-01  7.1360702803314802e-01 7.9030723384262003e-01 2.2520887237145124e-01  7.1604979224750120e-01 7.9210797326079430e-01 2.2700708741507800e-01  6.9103249432727998e-01 7.7830940775188118e-01 1.9781026471540461e-01  7.3083682385585302e-01 7.9082607496108515e-01 2.5404486949310495e-01  7.3584058245887063e-01 7.9183197112861747e-01 2.6057835945201496e-01  7.3634916818750762e-01 7.9262718491783013e-01 2.6016521453539504e-01  7.3578557605191164e-01 7.9416525110531944e-01 2.5690933041156438e-01  7.3561468575258604e-01 7.9441647737115362e-01 2.5625451503719371e-01  7.3540321424544186e-01 7.9462381942256233e-01 2.5560457747125437e-01  7.3546545846047706e-01 7.9456052133307364e-01 2.5579943084083046e-01  7.3554394840231063e-01 7.9448425376977361e-01 2.5603960440417073e-01  7.3577627888863817e-01 7.9425587399115316e-01 2.5675419963099499e-01  7.3606423003007315e-01 7.9397163308519303e-01 2.5764121358333758e-01  7.3643873174061714e-01 7.9360826134702167e-01 2.5878432853421407e-01  7.3687679759965152e-01 7.9319149759170449e-01 2.6010754089510901e-01  7.3735853159812048e-01 7.9274167494265824e-01 2.6154815211152765e-01  7.3786334071331239e-01 7.9228167985050535e-01 2.6303856111258012e-01  7.3836520287148411e-01 7.9182981221936266e-01 2.6451025600483319e-01  7.3884067596515435e-01 7.9140761241910862e-01 2.6589386671465337e-01  7.3926542494368475e-01 7.9103503494985783e-01 2.6712138625300175e-01  7.3961275656462044e-01 7.9072341939667268e-01 2.6813482771475233e-01  7.3999698801326541e-01 7.9033289450879318e-01 2.6932463991806299e-01  7.4001225155526262e-01 7.9026128895218217e-01 2.6945745124702969e-01  7.3990847035119356e-01 7.9025674449388983e-01 2.6930438106360804e-01  7.3968769588121386e-01 7.9031107007653700e-01 2.6888099048412795e-01  7.3935659755417482e-01 7.9041415083981847e-01 2.6821260522192647e-01  7.3892787360382084e-01 7.9055306867089681e-01 2.6733796470659182e-01  7.3841409413813486e-01 7.9071298008845836e-01 2.6629841133898585e-01  7.3783933940355406e-01 7.9087909298393733e-01 2.6515296435290442e-01  7.3723597373590710e-01 7.9103666166006170e-01 2.6397353359978742e-01  7.3664790298869665e-01 7.9117098489009174e-01 2.6285048273272033e-01  7.3614429720590757e-01 7.9126801145118142e-01 2.6191336147181482e-01  7.3555288621883519e-01 7.9132302568899071e-01 2.6089452192378282e-01  7.3486480557177125e-01 7.9133551607909403e-01 2.5977806794309871e-01  7.3378988341572138e-01 7.9133876406581982e-01 2.5804847330053576e-01  7.2963511416608262e-01 7.9126976521099290e-01 2.5139121942210346e-01  7.2728858288604992e-01 7.9115597719480979e-01 2.4767169666735311e-01  7.2481960846915150e-01 7.9095783312033674e-01 2.4380991521051362e-01  7.2218926466678823e-01 7.9065484699983080e-01 2.3975711191651966e-01  7.1938790216080339e-01 7.9022637062985457e-01 2.3551087851620869e-01  7.1641736103129805e-01 7.8965201113216854e-01 2.3108684050855485e-01  7.1328717749534776e-01 7.8891229148829600e-01 2.2651209670743203e-01  7.1001628072104095e-01 7.8799253335768982e-01 2.2182598572928411e-01  7.0662983094244147e-01 7.8687850565692885e-01 2.1707630701148370e-01  7.0316464137950330e-01 7.8556531286907594e-01 2.1232582213061918e-01  6.9969138332067116e-01 7.8407488180196927e-01 2.0767010960033053e-01  6.9631819709951570e-01 7.8245586839972137e-01 2.0324967302470034e-01  6.9056639577268253e-01 7.7923006532567718e-01 1.9597535598262469e-01  6.8707066738454314e-01 7.7699693942139103e-01 1.9168503564686659e-01  6.8315467972030108e-01 7.7431089951882015e-01 1.8693534849735738e-01  6.7894524373610532e-01 7.7122064186610195e-01 1.8187763462275613e-01  6.7446857335431343e-01 7.6771332493249811e-01 1.7653143302821972e-01  6.6973048728802065e-01 7.6376471751260377e-01 1.7089287934853689e-01  6.6467255342263720e-01 7.5928568303442889e-01 1.6489011671403145e-01  6.5355889112182985e-01 7.4863134263975595e-01 1.5169453791785034e-01  6.4941258298604632e-01 7.4436729411491265e-01 1.4676748139403992e-01  6.4612016168415243e-01 7.4085707885960495e-01 1.4284598485615826e-01  6.4352505952165395e-01 7.3800882914453303e-01 1.3975075085504057e-01  6.4160077056414666e-01 7.3585255047266074e-01 1.3744717514729118e-01  6.4030498659874036e-01 7.3438184707583387e-01 1.3588773033331844e-01  6.3958957120515436e-01 7.3356621482380868e-01 1.3501953646260323e-01  6.3954490701027655e-01 7.3350801318327585e-01 1.3497544242199921e-01  6.3995987589495595e-01 7.3394208042516085e-01 1.3553542760054141e-01  6.4050569725713080e-01 7.3447249130267278e-01 1.3632136382859508e-01  6.4110624231068103e-01 7.3498866345664515e-01 1.3726593887582894e-01  6.4163282203374350e-01 7.3531267601812200e-01 1.3824981912023113e-01  6.4196187463243159e-01 7.3526888794591827e-01 1.3916296766129352e-01  6.4197654494014600e-01 7.3467505467198535e-01 1.3991440792918189e-01  6.4147878016784166e-01 7.3322119476391989e-01 1.4034247388180895e-01  6.4003808192518163e-01 7.3020751134413397e-01 1.4010824341051339e-01  6.2954011714814928e-01 7.1174692362961134e-01 1.3350944999955183e-01  6.2422832018963892e-01 7.0240896859043267e-01 1.2963130782104337e-01  6.1950115725517263e-01 6.9374399991263480e-01 1.2620625691858098e-01  6.1537650972404290e-01 6.8590462631724136e-01 1.2323640078504218e-01  6.1208554640932245e-01 6.7943828126258599e-01 1.2090556662980578e-01  6.0917067967755067e-01 6.7337846755534725e-01 1.1896864206341912e-01  6.0698295665712065e-01 6.6858774905567875e-01 1.1759258010534704e-01  6.0372364067331086e-01 6.6132027200068189e-01 1.1551610973972312e-01  5.9126895600862950e-01 6.3279653881979725e-01 1.0716914011472162e-01  5.8617774109361409e-01 6.2068598696463195e-01 1.0365691639727447e-01  5.8222108364451208e-01 6.1097987999734982e-01 1.0096104334451371e-01  5.7932048492347299e-01 6.0359862654068419e-01 9.9109466676195426e-02  5.7756926782935403e-01 5.9881444036947384e-01 9.8272590753224406e-02  5.7708239680211126e-01 5.9688151208324303e-01 9.8663245076735018e-02  5.7802914364522662e-01 5.9807249953051611e-01 1.0059463436028296e-01  5.8478636097391923e-01 6.1022028970824038e-01 1.1034566780745979e-01  5.8853969932900252e-01 6.1692341354584468e-01 1.1561803819679334e-01  5.9233244438276245e-01 6.2340498221900109e-01 1.2108600706724984e-01  5.9590765347814212e-01 6.2915568431028135e-01 1.2646040060115907e-01  6.0171391290862519e-01 6.3709789371847703e-01 1.3619713514368126e-01  6.0772382244163037e-01 6.4392867015807187e-01 1.4734888395623794e-01  6.1558443510483540e-01 6.5138650891950078e-01 1.6316052381169593e-01  6.2476776845835447e-01 6.5785382424233430e-01 1.8364336790371005e-01  6.3469434468078478e-01 6.6191700526610853e-01 2.0863754198390397e-01  6.4486776356944486e-01 6.6243729655415184e-01 2.3811054960945843e-01  6.5475803305663505e-01 6.5857615963783478e-01 2.7176684876850948e-01  6.6385099560392358e-01 6.4996844031110801e-01 3.0888908280145877e-01  6.7159417561876689e-01 6.3678533788846003e-01 3.4797220794389017e-01  6.8183353153214699e-01 5.9697649000237341e-01 4.2896244243166132e-01  6.8454810812283329e-01 5.6464870397605060e-01 4.7878864489660122e-01  6.8466221596816645e-01 5.2602746278738699e-01 5.2871462759106769e-01  6.8168756232403116e-01 4.8265553002478995e-01 5.7428727182123374e-01  6.7563050682067427e-01 4.3696365384829422e-01 6.1119361681837514e-01  6.6670967119327851e-01 3.9150166731492009e-01 6.3572221874932455e-01  6.5545848663837813e-01 3.4880119103369256e-01 6.4562540149998371e-01  6.4268138017087029e-01 3.1105385195625834e-01 6.4076343493522392e-01  6.2931380984957142e-01 2.7972963692921504e-01 6.2319433730664742e-01  6.1623514053052475e-01 2.5554006303768079e-01 5.9630257570164735e-01  6.0422442326362091e-01 2.3847243234320528e-01 5.6433830998123635e-01  5.9388247955289608e-01 2.2812943744177605e-01 5.3132716816444414e-01  5.8561841879168297e-01 2.2406376316831625e-01 5.0038058316222245e-01  5.7979628571077058e-01 2.2587580584893202e-01 4.7413202282072525e-01  5.7644699594243587e-01 2.3298992317193334e-01 4.5362377802865206e-01  5.7708824424254079e-01 2.6087454140319621e-01 4.3147188456835434e-01  5.8066789269609920e-01 2.8039753426544489e-01 4.2866175356293890e-01  5.8606288753911251e-01 3.0353700672340156e-01 4.2936802847166000e-01  5.9319190493452356e-01 3.3066209509347488e-01 4.3220814039987410e-01  6.0163991054510280e-01 3.6162309491289091e-01 4.3488109356712334e-01  6.1120246228083974e-01 3.9712914134875643e-01 4.3494122918998274e-01  6.2183341384793223e-01 4.3904031438964308e-01 4.2903056693539887e-01  6.4493808148132914e-01 5.4867615765196809e-01 3.8241956032822411e-01  6.5052544401151557e-01 5.8721925365738181e-01 3.5317354244326948e-01  6.5304714432571653e-01 6.1722557966381064e-01 3.2317272741771269e-01  6.5313590102729324e-01 6.4023581992506884e-01 2.9389407731121092e-01  6.5127581963920145e-01 6.5694594934616812e-01 2.6669320959906923e-01  6.4792108145060601e-01 6.6786137505717158e-01 2.4259774317877780e-01  6.4359261132690138e-01 6.7370357106023349e-01 2.2224087366372922e-01  6.3893077937623788e-01 6.7546065521636001e-01 2.0611271113478916e-01  6.3141825491160175e-01 6.7153575647446362e-01 1.8819917603885700e-01  6.2562457315778375e-01 6.6505547556621714e-01 1.7809972928791049e-01  6.1808329348328184e-01 6.5446501829809800e-01 1.6687277657325345e-01  5.9583967827247086e-01 6.1391311324521580e-01 1.4037401994347501e-01  5.8585308967577010e-01 5.9162044197265562e-01 1.3076378364609639e-01  5.7660564936018177e-01 5.6849809904255577e-01 1.2297696542608751e-01  5.6780556575602215e-01 5.4427547016002198e-01 1.1642715032458777e-01  5.5930959078152154e-01 5.1877497816311058e-01 1.1084117609867870e-01  5.5099330697343829e-01 4.9181574989723492e-01 1.0595187075276806e-01  5.4253148163761455e-01 4.6236045234742690e-01 1.0151949068339057e-01  5.2280981573193486e-01 3.8623050998882907e-01 9.3083587063224921e-02  5.1603071426125868e-01 3.5749073819112531e-01 9.0795567857779383e-02  5.1048288432216127e-01 3.3277894104740180e-01 8.9186557525488944e-02  5.0576605707689448e-01 3.1080983915876065e-01 8.8054007665106918e-02  5.0169220255702263e-01 2.9103696459626022e-01 8.7289831863578901e-02  4.9815202379765150e-01 2.7318597783332410e-01 8.6814216209825157e-02  4.9508129549547236e-01 2.5714169523805414e-01 8.6563992813300933e-02  4.9243752129248652e-01 2.4286883909113685e-01 8.6482373342175359e-02  4.9018629810291869e-01 2.3035969798889508e-01 8.6514139634822074e-02  4.8830875248016420e-01 2.1965895938885299e-01 8.6615326364076706e-02  4.8678785593527735e-01 2.1080721026589025e-01 8.6746262325030285e-02  4.8561693633008052e-01 2.0387340160165007e-01 8.6878372082010949e-02  4.8478936160442410e-01 1.9890761698356821e-01 8.6988756409999077e-02  4.8429795028000688e-01 1.9593272887037638e-01 8.7061070146854311e-02  4.8420223765431147e-01 1.9541183470736945e-01 8.7041412012195687e-02  4.8438082043870601e-01 1.9669754088407662e-01 8.6900707352136106e-02  4.8466409941239297e-01 1.9872522849879015e-01 8.6682125249158110e-02  4.8505926160925039e-01 2.0149066970821491e-01 8.6408563387572301e-02  4.8554969644286472e-01 2.0482645900728491e-01 8.6116717736982679e-02  4.8668571617953960e-01 2.1203401712143044e-01 8.5692957393889185e-02  4.8563506649362687e-01 2.0552251831751697e-01 8.5989037013944183e-02  4.8495234681761085e-01 2.0122369593139627e-01 8.6200299947023912e-02  4.8448992855204032e-01 1.9828227913129698e-01 8.6351661389743067e-02  4.8420773760288421e-01 1.9647555363223615e-01 8.6447393372141357e-02  4.8423465331148652e-01 1.9664841096816330e-01 8.6438109978214009e-02  4.8461154148674956e-01 1.9905974007807051e-01 8.6310731528013690e-02  4.8521836471533614e-01 2.0291174279232677e-01 8.6114507618252165e-02  4.9115428201136679e-01 2.3840127701080829e-01 8.4929328275677424e-02  4.9360107453255303e-01 2.5179456874030970e-01 8.4957619337969859e-02  4.9633953901263395e-01 2.6595104067072661e-01 8.5352870282012522e-02  4.9953508131257590e-01 2.8157150598579023e-01 8.6204017796783827e-02  5.0331702645759002e-01 2.9906353189264051e-01 8.7634627670510890e-02  5.0779709018612618e-01 3.1869032242402295e-01 8.9775979220329191e-02  5.1311740324732424e-01 3.4072745456891357e-01 9.2822513467586978e-02  5.1947229866753553e-01 3.6549855942139386e-01 9.7072162553382954e-02  5.2724741721156709e-01 3.9376342767893246e-01 1.0310260992408062e-01  5.4934188151434016e-01 4.6327210219055337e-01 1.2548582626990457e-01  5.5861078861636304e-01 4.8719411691371828e-01 1.3800517736502815e-01  5.6702910203010204e-01 5.0532666620134314e-01 1.5201853284274572e-01  5.7466497593107779e-01 5.1786794174711936e-01 1.6803997998188808e-01  5.8145428100965546e-01 5.2474447810557456e-01 1.8633974631270547e-01  5.8722715133371650e-01 5.2566333467150606e-01 2.0695197404828095e-01  5.9182793748693630e-01 5.2056483997881242e-01 2.2963104371764814e-01  5.9513866013533312e-01 5.0966705361006492e-01 2.5383064088307489e-01  5.9711763183947153e-01 4.9356415367124951e-01 2.7871986582278852e-01  5.9780761304900942e-01 4.7325451072614311e-01 3.0321198740245869e-01  5.9738331439816805e-01 4.5025539588608532e-01 3.2610053541209894e-01  5.9616348242967376e-01 4.2685302231148026e-01 3.4598137400534934e-01  5.9275616184626523e-01 3.8725075689901967e-01 3.7310992134145793e-01  5.8942048830523719e-01 3.5608436110504005e-01 3.9059207014718222e-01  5.8513831443038700e-01 3.1871633440305858e-01 4.0899841225553796e-01  5.7989497851776972e-01 2.7504756071914743e-01 4.2743549208658466e-01  5.6581073069017485e-01 1.8092051454868985e-01 4.4843952210734972e-01  5.6270104178097180e-01 1.6997207679649257e-01 4.4382854571546554e-01  5.6104916383992076e-01 1.6564773320858234e-01 4.4006791840904030e-01  5.6101380194583961e-01 1.6556043615595467e-01 4.3998207875666367e-01  5.6239538070850426e-01 1.6841529277497197e-01 4.4374979394981684e-01  5.6433301567238003e-01 1.7106824237782506e-01 4.5007116767067945e-01  5.6635496729597490e-01 1.7012603096525356e-01 4.5959721054834046e-01  5.7016112734578217e-01 1.5456520805260232e-01 4.8831634791037715e-01  5.7152576454850612e-01 1.4622061230034647e-01 5.0069593918947197e-01  5.7241124286827538e-01 1.3932823811092168e-01 5.0983411109586607e-01  5.7296282600927451e-01 1.3474056050490105e-01 5.1573012708682608e-01  5.7317040328694502e-01 1.3324934282162437e-01 5.1776715551288921e-01  5.7309431129318988e-01 1.3451654056586768e-01 5.1647614499357586e-01  5.7295119032489594e-01 1.3821029526883627e-01 5.1304280866873297e-01  5.7331269446426392e-01 1.4491280549562138e-01 5.0947428324837918e-01  5.8324481473986067e-01 1.6088641206090409e-01 5.4000626636378601e-01  5.8990240118493731e-01 1.6195749225281075e-01 5.6771860889678993e-01  5.9640322726872164e-01 1.6334402878745799e-01 5.9426896246819683e-01  6.0247084065820911e-01 1.6552075697238605e-01 6.1811226755165827e-01  6.0746075407776057e-01 1.6809485088760795e-01 6.3689168897021042e-01  6.1265695133121190e-01 1.7353642136422243e-01 6.5377245847614329e-01  6.1655640617860552e-01 1.8055382786258653e-01 6.6354550046416994e-01  6.2151917230