<?xml version="1.0"?>
<VTKFile type="UnstructuredGrid"  version="0.1"  >
<UnstructuredGrid>
<Piece  NumberOfPoints="7288" NumberOfCells="14083">
<Points>
<DataArray  type="Float64"  NumberOfComponents="3"  format="ascii">239.8 188 0  250.2 180 0  258.2 172.4 0  257 169.4 0  259.9 157.4 0  258.7 150.3 0  261 143.5 0  251.7 144.4 0  250 138.7 0  247 138.1 0  245.2 130.8 0  247.3 126.4 0  242.7 118.6 0  231.2 107.7 0  226 102.4 0  226.5 93.90000000000001 0  224.5 91.19999999999999 0  224.5 84.09999999999999 0  234.5 73.80000000000001 0  228.4 68.90000000000001 0  230 70 0  233.4 68 0  222.7 61.5 0  220.6 45.5 0  223.4 49.40000000000001 0  224 47 0  221.8 43.09999999999999 0  221 38.40000000000001 0  219.5 38.5 0  219.4 41.69999999999999 0  217.1 36.90000000000001 0  209.7 36 0  209.5 31.69999999999999 0  205.1 29.90000000000001 0  201.5 30.40000000000001 0  199.2 38.69999999999999 0  201.8 41.40000000000001 0  194.8 53.80000000000001 0  196.1 57.69999999999999 0  193 59 0  191.4 66.09999999999999 0  193.5 66.5 0  194.1 64.40000000000001 0  195.6 64.69999999999999 0  195.4 72.40000000000001 0  199.5 77.30000000000001 0  197.7 86.90000000000001 0  200.6 87.5 0  201.5 91 0  198 94.80000000000001 0  198.6 100 0  197.3 105.4 0  198 109.5 0  197 112.7 0  198.3 116.1 0  201.3 122 0  207.2 121 0  208.1 126.7 0  205.6 127.9 0  209.1 134.9 0  210.9 144.4 0  210.1 147.9 0  213 148.4 0  215.4 149.3 0  215.1 152.8 0  219.9 159.7 0  220.3 163.2 0  218.7 164.9 0  219.9 166.7 0  221.9 169.7 0  220 170.3 0  224.9 174.7 0  229.8 177.4 0  229.7 181 0  228 172.9 0  239 178 0  240.4 180 0  239 181.5 0  241.2 185.9 0  242.95 187.99 0  240.5875 187.9975 0  241.375 187.995 0  242.1625 187.9925 0  243.6090909090879 187.2636363636397 0  244.2681818181765 186.5372727272785 0  244.9272727272692 185.810909090913 0  245.5863636363531 185.0845454545571 0  246.245454545445 184.3581818181923 0  246.9045454545351 183.6318181818295 0  247.5636363636303 182.9054545454612 0  248.2227272727197 182.1790909090992 0  248.8818181818179 181.4527272727275 0  249.5409090909066 180.7263636363664 0  250.8666666666961 179.3666666666387 0  251.5333333334033 178.7333333332668 0  252.2000000000994 178.0999999999055 0  252.8666666668011 177.466666666539 0  253.5333333335083 176.8333333331671 0  254.2000000002044 176.1999999998058 0  254.8666666669005 175.5666666664445 0  255.5333333336077 174.9333333330727 0  256.2000000002685 174.2999999997449 0  256.8666666668457 173.6666666664966 0  257.5333333334283 173.033333333243 0  257.9000000000077 171.6500000000191 0  257.6000000000015 170.9000000000038 0  257.2999999999954 170.1499999999885 0  257.2230769230778 168.4769230769195 0  257.4461538461543 167.5538461538442 0  257.6692307692309 166.6307692307688 0  257.8923076923074 165.7076923076935 0  258.115384615384 164.7846153846181 0  258.3384615384605 163.8615384615427 0  258.5615384615395 162.9384615384572 0  258.784615384616 162.0153846153819 0  259.0076923076926 161.0923076923065 0  259.2307692307691 160.1692307692311 0  259.4538461538457 159.2461538461558 0  259.6769230769222 158.3230769230804 0  259.750000000001 156.512500000006 0  259.6000000000014 155.6250000000082 0  259.4500000000029 154.7375000000176 0  259.3000000000018 153.8500000000108 0  259.1500000000007 152.962500000004 0  259.0000000000004 152.0750000000026 0  258.849999999999 151.187499999994 0  258.9875000000052 149.4499999999846 0  259.275000000002 148.5999999999941 0  259.5624999999954 147.7500000000135 0  259.849999999995 146.900000000015 0  260.1374999999945 146.0500000000164 0  260.4249999999913 145.2000000000259 0  260.7124999999948 144.3500000000154 0  260.0700000000398 143.5899999999961 0  259.1400000000573 143.6799999999944 0  258.2100000000351 143.7699999999966 0  257.2800000000262 143.8599999999975 0  256.350000000011 143.9499999999989 0  255.4199999999881 144.0400000000011 0  254.4899999999726 144.1300000000026 0  253.5599999999944 144.2200000000005 0  252.6300000000009 144.3099999999999 0  251.4166666666658 143.4499999999971 0  251.1333333333388 142.5000000000182 0  250.8500000000015 141.5500000000051 0  250.5666666666612 140.5999999999818 0  250.2833333333342 139.6500000000029 0  249.2500000000005 138.5500000000001 0  248.5000000000011 138.4000000000002 0  247.7499999999995 138.2499999999999 0  246.7750000000005 137.1875000000023 0  246.5500000000021 136.2750000000085 0  246.3250000000036 135.3625000000147 0  246.1000000000042 134.450000000017 0  245.8750000000022 133.5375000000088 0  245.650000000003 132.6250000000124 0  245.4250000000046 131.7125000000187 0  245.619999999996 129.9200000000084 0  246.0399999999992 129.0400000000017 0  246.4599999999987 128.1600000000028 0  246.8800000000001 127.2799999999997 0  246.8399999999988 125.6199999999979 0  246.3799999999984 124.8399999999973 0  245.9199999999991 124.0599999999985 0  245.4600000000036 123.2800000000062 0  245.0000000000049 122.5000000000082 0  244.5400000000036 121.7200000000062 0  244.0800000000033 120.9400000000056 0  243.6200000000016 120.1600000000027 0  243.1600000000012 119.3800000000021 0  241.9812499999996 117.9187499999997 0  241.2625000000007 117.2375000000007 0  240.5437500000017 116.5562500000017 0  239.8250000000041 115.875000000004 0  239.1062500000066 115.1937500000063 0  238.3875000000076 114.5125000000072 0  237.6687500000087 113.8312500000082 0  236.9500000000083 113.1500000000079 0  236.231250000008 112.4687500000076 0  235.512500000009 111.7875000000085 0  234.7937500000045 111.1062500000043 0  234.0750000000042 110.4250000000039 0  233.3562500000066 109.7437500000062 0  232.6375000000021 109.062500000002 0  231.9187500000031 108.381250000003 0  230.5500000000004 107.0375000000004 0  229.9000000000021 106.3750000000021 0  229.2500000000038 105.7125000000039 0  228.6000000000041 105.0500000000042 0  227.9500000000018 104.3875000000018 0  227.2999999999952 103.7249999999951 0  226.6500000000024 103.0625000000024 0  226.0555555555555 101.4555555555556 0  226.1111111111111 100.5111111111111 0  226.1666666666667 99.56666666666668 0  226.2222222222222 98.62222222222223 0  226.2777777777778 97.67777777777778 0  226.3333333333333 96.73333333333335 0  226.3888888888889 95.78888888888889 0  226.4444444444445 94.84444444444446 0  226 93.22499999999999 0  225.5000000000026 92.55000000000358 0  225.0000000000026 91.87500000000358 0  224.5 90.31250000000068 0  224.5 89.4250000000097 0  224.5 88.53750000001317 0  224.5 87.65000000001388 0  224.5 86.76250000001457 0  224.5 85.87500000001248 0  224.5 84.9874999999993 0  225.1666666666659 83.41333333333409 0  225.8333333333319 82.72666666666818 0  226.4999999999978 82.04000000000228 0  227.1666666666649 81.35333333333514 0  227.8333333333301 80.66666666667 0  228.4999999999942 79.980000000006 0  229.1666666666601 79.2933333333401 0  229.8333333333316 78.60666666666847 0  230.4999999999975 77.92000000000257 0  231.1666666666644 77.23333333333572 0  231.8333333333295 76.54666666667057 0  232.4999999999972 75.86000000000287 0  233.1666666666681 75.17333333333181 0  233.8333333333368 74.48666666666306 0  233.7499999999995 73.16666666666629 0  233.0000000000018 72.53333333333488 0  232.2500000000014 71.90000000000116 0  231.5000000000009 71.26666666666743 0  230.7500000000005 70.63333333333372 0  229.233333333333 68.75000000000006 0  230.0666666666665 68.60000000000004 0  230.8999999999995 68.45000000000009 0  231.7333333333325 68.30000000000015 0  232.566666666667 68.14999999999995 0  232.5499999999897 68.50000000000607 0  231.7 69 0  230.8500000000103 69.49999999999393 0  227.8300000000008 68.16000000000106 0  227.2600000000064 67.42000000000837 0  226.6900000000077 66.68000000001001 0  226.1200000000024 65.94000000000314 0  225.5500000000108 65.20000000001409 0  224.9800000000098 64.46000000001268 0  224.4100000000007 63.72000000000098 0  223.8399999999971 62.97999999999621 0  223.2699999999993 62.23999999999915 0  222.753846153846 60.56923076923239 0  222.8076923076921 59.63846153846478 0  222.8615384615381 58.70769230769827 0  222.9153846153842 57.77692307693071 0  222.9692307692302 56.84615384616315 0  223.0230769230761 55.91538461539836 0  223.0769230769224 54.98461538462665 0  223.1307692307688 54.05384615385345 0  223.184615384615 53.12307692308312 0  223.2384615384611 52.19230769231556 0  223.2923076923071 51.26153846154906 0  223.3461538461533 50.33076923077847 0  222.8400000000024 48.62000000000327 0  222.2800000000047 47.84000000000661 0  221.7200000000005 47.06000000000071 0  221.1600000000003 46.28000000000039 0  221.4500000000116 45.87500000000512 0  222.3 46.25 0  223.1499999999884 46.62499999999488 0  223.5600000000055 46.22000000000981 0  223.1199999999987 45.43999999999767 0  222.6800000000061 44.66000000001075 0  222.2399999999969 43.8799999999944 0  221.6400000000004 42.16000000000253 0  221.4800000000009 41.22000000000548 0  221.3200000000014 40.28000000000801 0  221.1600000000009 39.34000000000556 0  220.25 38.45 0  219.4749999999999 39.30000000000165 0  219.45 40.09999999999999 0  219.425 40.90000000000112 0  219.0166666666641 40.89999999999463 0  218.6333333333375 40.10000000000875 0  218.2500000000016 39.30000000000339 0  217.8666666666635 38.49999999999351 0  217.483333333337 37.70000000000762 0  216.1750000000165 36.78750000000201 0  215.2500000000275 36.67500000000335 0  214.3250000000385 36.56250000000469 0  213.4000000000277 36.45000000000337 0  212.4750000000059 36.33750000000072 0  211.5499999999838 36.22499999999803 0  210.6249999999835 36.11249999999799 0  209.6600000000001 35.14000000000318 0  209.6200000000001 34.28000000000268 0  209.5800000000001 33.42000000000284 0  209.5399999999998 32.55999999999681 0  208.6200000000117 31.34000000000476 0  207.7400000000138 30.98000000000564 0  206.8600000000162 30.62000000000662 0  205.9800000000174 30.26000000000711 0  204.2000000000054 30.02499999999925 0  203.2999999999946 30.15000000000076 0  202.3999999999945 30.27500000000076 0  201.2444444444438 31.32222222222468 0  200.9888888888895 32.24444444
[...]
<PointData  Vectors="f_12"> 
<DataArray  type="Float64"  Name="f_12"  NumberOfComponents="3" format="ascii">7.9923375975689559e-01 6.5752482435021420e-01 5.4765604931262046e-01  7.9923385343550557e-01 6.5752552521073360e-01 5.4765509559806791e-01  7.9923510587874091e-01 6.5752877319298597e-01 5.4765143423377749e-01  7.9923851565981108e-01 6.5753187159419946e-01 5.4764998618184813e-01  7.9936130854044196e-01 6.5720293467555324e-01 5.4825073585389472e-01  7.9952266595444033e-01 6.5375877363868107e-01 5.5349557458943466e-01  7.9958995608703654e-01 6.5338978825848992e-01 5.5410419132499966e-01  7.8838834276344893e-01 5.7498140919590213e-01 6.5278391870511709e-01  7.3270178223945037e-01 3.6529175998431107e-01 8.1964057914249011e-01  6.6965580713029360e-01 2.4719860854938983e-01 7.5853819305632786e-01  5.1417196297143575e-01 1.5774408225168515e-01 2.3031420655895035e-01  4.9849725695184693e-01 1.9934313371024837e-01 1.3849483934095155e-01  5.1198671881540636e-01 3.0999999382237864e-01 1.1230476765934376e-01  5.1989921914932624e-01 2.1052280771154602e-01 2.1859918863322267e-01  6.2460217522479833e-01 2.0190094464060579e-01 6.4647979977925873e-01  7.8315967091768202e-01 5.8134811559843558e-01 6.3969416383445488e-01  7.9195645007817406e-01 6.4962182785532185e-01 5.5234651552490965e-01  7.9174827281568549e-01 7.1470889862824549e-01 4.5375606560049442e-01  7.8820067038973918e-01 7.3061663135489641e-01 4.2529530544200639e-01  7.8882551880956775e-01 7.2825268705217205e-01 4.2964826036520748e-01  7.8853300980358465e-01 7.2939434562807981e-01 4.2755701036969185e-01  7.8836689598230658e-01 7.3004985528473032e-01 4.2635590257981637e-01  7.9223172164697186e-01 7.1230872568395454e-01 4.5795016496838153e-01  7.9729497505179125e-01 6.7371963769323862e-01 5.2175858310860979e-01  7.9635434414519191e-01 6.8395445528952947e-01 5.0544726390185268e-01  7.9751542265996844e-01 6.7070507966779525e-01 5.2648798138164143e-01  7.9755088679172692e-01 6.7049188202100474e-01 5.2683796114079273e-01  7.9774038165545813e-01 6.6760707541325914e-01 5.3132434074233670e-01  7.9773979826441177e-01 6.6762075090841111e-01 5.3130338518556564e-01  7.9763644493652885e-01 6.6984431686703838e-01 5.2788586852477903e-01  7.9779936941518836e-01 6.6992723105433183e-01 5.2791355126338679e-01  7.9777705984594360e-01 6.7473416803774233e-01 5.2068786477867091e-01  7.9780551691856416e-01 6.7657800031955728e-01 5.1794286013948210e-01  7.9779947618316194e-01 6.7729043762733565e-01 5.1686484288537360e-01  7.9779031728733851e-01 6.7755771559870426e-01 5.1645383236614784e-01  7.9767780682799949e-01 6.7776848494913811e-01 5.1603192418741362e-01  7.9746026587495211e-01 6.7864610040531281e-01 5.1450588025921162e-01  7.9549744488376761e-01 6.9259561646926038e-01 4.9148608116600140e-01  7.9458978582618733e-01 6.9883771512757353e-01 4.8105436615411062e-01  7.9405691455660077e-01 7.0245398032493045e-01 4.7498524823435601e-01  7.9238909573820449e-01 7.1366847468423766e-01 4.5600861697586187e-01  7.9245621700097524e-01 7.1321093897621546e-01 4.5678448903602309e-01  7.9344494347756911e-01 7.0658386216664337e-01 4.6801763701377486e-01  7.9312296623518452e-01 7.0873764611967471e-01 4.6437025364166901e-01  7.9216563268830786e-01 7.1505200436594862e-01 4.5363752721513778e-01  7.9256082840889053e-01 7.1212932207535184e-01 4.5856549547122610e-01  7.9442159688059388e-01 6.9909515162539082e-01 4.8050899460788976e-01  7.9487735509748225e-01 6.9579752637497483e-01 4.8599694942607125e-01  7.9665474864843810e-01 6.8081928052424823e-01 5.1047675219281086e-01  7.9803186429295858e-01 6.6296675036992436e-01 5.3857376181585315e-01  7.9606147130138849e-01 6.2433747197133549e-01 5.9298021110679544e-01  7.8353896873474882e-01 5.3515009165727079e-01 7.0112360392368311e-01  7.5258452326040270e-01 4.0980036822432975e-01 8.0750623891660900e-01  7.2207720624388438e-01 3.1694863915033494e-01 8.4798761271000322e-01  6.7602058968051959e-01 2.2344948370964249e-01 8.1433882323437090e-01  5.9346219808789336e-01 1.2658578726255496e-01 5.9866973809496482e-01  5.3331164542291387e-01 1.5539642222820513e-01 3.1367040306314342e-01  4.9485910707113268e-01 1.8770898341549599e-01 1.3208266122185583e-01  4.9213681233115553e-01 1.8151698658358620e-01 1.2556624914327438e-01  5.0305774775672685e-01 1.4488288633202590e-01 1.9219918881124234e-01  6.3117819845614875e-01 1.6662726796996749e-01 7.0720462278629581e-01  6.7433120061551088e-01 2.1360769179955202e-01 8.2162643502823818e-01  6.8799246841728201e-01 2.4252505217385109e-01 8.3351858290109260e-01  7.3282872480237393e-01 3.5788569933972270e-01 8.2248452894069823e-01  7.7932083639970384e-01 5.1505867545680462e-01 7.2135006260647261e-01  7.9915224477897451e-01 6.3969185667831607e-01 5.7372991085922309e-01  7.9956954855838502e-01 6.5435311802640195e-01 5.5265426346522539e-01  7.9948854082046261e-01 6.5634663286809192e-01 5.4963539552268015e-01  7.9942857686765112e-01 6.5686687026870827e-01 5.4881022724966178e-01  7.9933644625258937e-01 6.5738077324773325e-01 5.4796425305361585e-01  7.9934646009709953e-01 6.5736852084004826e-01 5.4799166224390639e-01  7.9926303145470790e-01 6.5754147154328091e-01 5.4765837691516073e-01  7.9923676897383200e-01 6.5753122252055318e-01 5.4764933660687831e-01  7.9923467240563750e-01 6.5752854783394621e-01 5.4765136744152110e-01  7.9925927537170871e-01 6.5753308823632639e-01 5.4766733429084913e-01  7.9923491218786791e-01 6.5752819283697750e-01 5.4765211617937248e-01  7.9923401191801091e-01 6.5752591418332373e-01 5.4765466509212857e-01  7.9923382235979457e-01 6.5752525947467089e-01 5.4765546133469911e-01  7.9923376133782553e-01 6.5752486684852629e-01 5.4765598766750179e-01  7.9923375941062935e-01 6.5752483569264608e-01 5.4765603214341796e-01  7.9923375974389999e-01 6.5752482600600770e-01 5.4765604684127411e-01  7.9923375967098698e-01 6.5752482929452627e-01 5.4765604188904360e-01  7.9923375953043896e-01 6.5752483268374429e-01 5.4765603672412244e-01  7.9923375936405583e-01 6.5752484485449680e-01 5.4765601849256618e-01  7.9923375952735010e-01 6.5752486253944609e-01 5.4765599237873042e-01  7.9923376017388914e-01 6.5752488760745886e-01 5.4765595575001647e-01  7.9923376168602589e-01 6.5752492066720392e-01 5.4765590805874120e-01  7.9923376450359485e-01 6.5752496300012220e-01 5.4765584781140120e-01  7.9923376907784083e-01 6.5752501542385688e-01 5.4765577421359390e-01  7.9923377647254346e-01 6.5752508164154633e-01 5.4765568275516829e-01  7.9923378727616246e-01 6.5752516258027949e-01 5.4765557260606323e-01  7.9923380231511432e-01 6.5752525966220587e-01 5.4765544242165642e-01  7.9923382395455000e-01 6.5752537962458124e-01 5.4765528439325784e-01  7.9923388706841303e-01 6.5752567878643575e-01 5.4765489879298312e-01  7.9923392666475745e-01 6.5752584695467953e-01 5.4765468585478161e-01  7.9923397690446085e-01 6.5752604108040402e-01 5.4765444424848453e-01  7.9923403930889791e-01 6.5752626324138741e-01 5.4765417229827340e-01  7.9923411565731783e-01 6.5752651460466760e-01 5.4765386991802190e-01  7.9923420684443536e-01 6.5752679487217736e-01 5.4765353837786146e-01  7.9923431968304415e-01 6.5752711181749046e-01 5.4765317244189093e-01  7.9923445587036157e-01 6.5752746192131017e-01 5.4765277889882646e-01  7.9923461564392995e-01 6.5752783578322826e-01 5.4765237191068750e-01  7.9923479613353132e-01 6.5752821674973905e-01 5.4765197352517458e-01  7.9923497973373681e-01 6.5752856281344807e-01 5.4765162978446524e-01  7.9923532804345798e-01 6.5752905678340334e-01 5.4765121874726852e-01  7.9923587608353031e-01 6.5752968441739834e-01 5.4765079382672632e-01  7.9923682546022046e-01 6.5753060047813361e-01 5.4765031152434940e-01  7.9924113209693171e-01 6.5753319054116643e-01 5.4765044418789655e-01  7.9924408983111617e-01 6.5753377234621035e-01 5.4765230958751820e-01  7.9924777150366710e-01 6.5753333044851126e-01 5.4765635996949191e-01  7.9925241008187631e-01 6.5753128777440828e-01 5.4766366546634870e-01  7.9925821776204309e-01 6.5752682256492456e-01 5.4767563970451161e-01  7.9926539975390110e-01 6.5751883054358673e-01 5.4769410859292866e-01  7.9927414880943837e-01 6.5750588275648147e-01 5.4772136776329527e-01  7.9928462762985564e-01 6.5748619903665184e-01 5.4776020565708161e-01  7.9929696068853107e-01 6.5745745862292326e-01 5.4781417660147924e-01  7.9931132886660172e-01 6.5741613241197971e-01 5.4788867749941927e-01  7.9932741146153330e-01 6.5736034407070121e-01 5.4798619267472537e-01  7.9934479415450188e-01 6.5728705335380599e-01 5.4811084357503226e-01  7.9937994061135353e-01 6.5708115394384381e-01 5.4844837851301509e-01  7.9940377893064174e-01 6.5689137156383237e-01 5.4875155581070911e-01  7.9943026818053531e-01 6.5662739794802949e-01 5.4916702924354777e-01  7.9945728298000984e-01 6.5627409510638912e-01 5.4971517042180729e-01  7.9948242526009305e-01 6.5581895795766565e-01 5.5041214580184794e-01  7.9950304636081071e-01 6.5525516044690379e-01 5.5126541084552061e-01  7.9951689500513889e-01 6.5457368872666299e-01 5.5228595963278726e-01  7.9952980648823502e-01 6.5321233487012498e-01 5.5430956864023995e-01  7.9953311948822692e-01 6.5285988799891181e-01 5.5483310681325881e-01  7.9954028707160829e-01 6.5274176581824495e-01 5.5501428953281629e-01  7.9954945852455339e-01 6.5276455833488689e-01 5.5498927745300763e-01  7.9956157975103392e-01 6.5291042780539721e-01 5.5478534066862562e-01  7.9957445285787832e-01 6.5311451712362312e-01 5.5449610923585213e-01  7.9958532415826422e-01 6.5330560000403060e-01 5.5422416113626805e-01  7.9958076688659785e-01 6.5322684445908785e-01 5.5433609584212584e-01  7.9954423529091412e-01 6.5261031944887626e-01 5.5521140109325351e-01  7.9946429734958235e-01 6.5137698836371960e-01 5.5695385773716566e-01  7.9931537305569844e-01 6.4933670802934096e-01 5.5981467961671205e-01  7.9904946669279575e-01 6.4617000742502551e-01 5.6420663602268561e-01  7.9859166505513168e-01 6.4145274400424512e-01 5.7065445328939246e-01  7.9781155478488519e-01 6.3450932599138810e-01 5.7995846918463334e-01  7.9647063943993279e-01 6.2416790839703040e-01 5.9344136658796343e-01  7.9401004798943053e-01 6.0771822349762472e-01 6.1404521871352247e-01  7.7913199408463274e-01 5.2853066205068577e-01 7.0319017308115628e-01  7.7023320936129258e-01 4.8965616995097078e-01 7.4065230374249180e-01  7.6025112919162108e-01 4.5136709409548409e-01 7.7227306125162332e-01  7.4967261270253693e-01 4.1522799498504709e-01 7.9680493237005101e-01  7.3963204110200331e-01 3.8431557845566428e-01 8.1309680894484382e-01  7.2757346078088203e-01 3.5340370715660679e-01 8.2006980381719285e-01  7.1619187561677977e-01 3.2903067959503679e-01 8.1643522040846339e-01  6.9852816398495254e-01 2.9531829323481379e-01 8.0095071115055005e-01  6.3069041243813306e-01 1.9422686905455580e-01 6.7356619524895633e-01  6.0272835154623172e-01 1.6532627680837017e-01 5.9304091556648475e-01  5.8014198984449128e-01 1.4871807125673495e-01 5.1570347032340524e-01  5.6165934662526507e-01 1.4042399654581109e-01 4.4480046670455969e-01  5.4658327444430244e-01 1.3822677794127544e-01 3.8207217878573124e-01  5.3421530252425964e-01 1.4062781611641331e-01 3.2724933280442470e-01  5.2384297605758290e-01 1.4688667972510899e-01 2.7855354312802671e-01  5.0699639474939717e-01 1.7002627315697694e-01 1.9223884402594754e-01  5.0292000437898476e-01 1.7986076017079358e-01 1.6904489349319743e-01  5.0042508175288414e-01 1.8825037612853390e-01 1.5346474972404495e-01  4.9902168851368511e-01 1.9507881827338830e-01 1.4338241361725651e-01  4.9850855778840625e-01 2.0378555963089007e-01 1.3558002631774763e-01  4.9888053270851962e-01 2.1160194180280539e-01 1.3178777873695907e-01  4.9966011375956515e-01 2.2166706409249246e-01 1.2799847657212271e-01  5.0082901935510782e-01 2.3346294022327532e-01 1.2443675263381211e-01  5.0234147267660634e-01 2.4636188893007593e-01 1.2131521451401146e-01  5.0412298568604941e-01 2.5994010845641241e-01 1.1861146240818740e-01  5.0608771473404512e-01 2.7370320118927793e-01 1.1632844480654998e-01  5.0814569450306979e-01 2.8710892308501162e-01 1.1450954696272300e-01  5.1017764577769398e-01 2.9955347963618689e-01 1.1315277345150460e-01  5.1393126700690550e-01 3.2041775634966635e-01 1.1188537000450234e-01  5.1599407773575645e-01 3.3066500676578608e-01 1.1194466994624858e-01  5.1794588449448253e-01 3.3949717354398207e-01 1.1258023481283892e-01  5.1967172376679938e-01 3.4627328413169400e-01 1.1388368553058466e-01  5.2108145664731953e-01 3.5052586637378291e-01 1.1592008710664736e-01  5.2209896830712532e-01 3.5182131176752418e-01 1.1877546698271048e-01  5.2268158928134500e-01 3.4987913590013980e-01 1.2253048475087518e-01  5.2281411305518033e-01 3.4453474012772795e-01 1.2725639132452252e-01  5.2251358508935797e-01 3.3577471478279197e-01 1.3300208968015459e-01  5.2184737559518002e-01 3.2371862808565144e-01 1.3988292343943487e-01  5.2092622638023844e-01 3.0870079825532837e-01 1.4800064244109262e-01  5.1990349185806284e-01 2.9121612073635272e-01 1.5750346127623546e-01  5.1899855023341113e-01 2.7183680385067061e-01 1.6876378280978058e-01  5.1847359353603895e-01 2.5138032016062800e-01 1.8217922530128788e-01  5.1865844830632069e-01 2.3067943796137763e-01 1.9848739565228241e-01  5.2241758771968017e-01 1.9320830710419234e-01 2.4187546353946893e-01  5.2659019150911313e-01 1.7847001962231729e-01 2.7026185033622740e-01  5.3276362135042676e-01 1.6676429075723884e-01 3.0501658826684896e-01  5.4162627557099541e-01 1.5906373902819496e-01 3.4837784718865900e-01  5.5363791707133925e-01 1.5616342824284513e-01 4.0141897265522319e-01  5.6974783264183659e-01 1.5958497985362957e-01 4.6602733514219696e-01  5.9173726219248390e-01 1.7232084477116272e-01 5.4486416459870246e-01  6.6082974329239175e-01 2.4759971830349800e-01 7.3382049466046473e-01  6.8913235088217584e-01 2.9464079452049635e-01 7.7785145993917637e-01  7.1327553135992705e-01 3.4536469429597505e-01 7.9200660611560514e-01  7.3360521630370790e-01 3.9741560728412401e-01 7.8312524276845041e-01  7.5017447135164972e-01 4.4759925199728540e-01 7.5871009014383650e-01  7.6309459206920638e-01 4.9301370657320981e-01 7.2610343538541711e-01  7.7269334841623483e-01 5.3161793360423071e-01 6.9179470845745783e-01  7.7936581346353562e-01 5.6197273028344186e-01 6.6104252297734634e-01  7.8532750083918157e-01 5.9445137458614450e-01 6.2411007563500387e-01  7.8781697911130100e-01 6.1156673674702755e-01 6.0286742419594241e-01  7.9001260659610650e-01 6.2955401044684434e-01 5.7952269026433845e-01  7.9322003559303311e-01 6.6778597551830887e-01 5.2676190711051663e-01  7.9371161715645266e-01 6.8005859967453242e-01 5.0884603885066138e-01  7.9379292125602829e-01 6.8919776678228073e-01 4.9507150474336808e-01  7.9363099415956495e-01 6.9629548815101638e-01 4.8406781156702788e-01  7.9331318691754793e-01 7.0193242146730117e-01 4.7509198783381290e-01  7.9289667058465885e-01 7.0654509328365989e-01 4.6756038182091042e-01  7.9240069830899695e-01 7.1054011586073074e-01 4.6088092886836568e-01  7.9109033701789377e-01 7.1826265032789705e-01 4.4756535031556577e-01  7.9060814078039832e-01 7.2059904818574794e-01 4.4343677911920004e-01  7.9020479264021426e-01 7.2242165753856868e-01 4.4018323909227686e-01  7.8985652568696396e-01 7.2392526800515689e-01 4.3747961423276061e-01  7.8955225497883141e-01 7.2520045193150595e-01 4.3517483975065208e-01  7.8928546723547377e-01 7.2629680387865192e-01 4.3318587798332397e-01  7.8905224582692146e-01 7.2724231335734035e-01 4.3146576049200946e-01  7.8884994730956426e-01 7.2805439344370493e-01 4.2998515897402001e-01  7.8867652597647031e-01 7.2874535554684572e-01 4.2872320173083506e-01  7.8853086819257512e-01 7.2932211201946051e-01 4.2766830456780908e-01  7.8841213363774654e-01 7.2978988626058672e-01 4.2681172916828619e-01  7.8832004520529186e-01 7.3015108509870308e-01 4.2614965485144984e-01  7.8825443420952901e-01 7.3040749056621990e-01 4.2567929381456426e-01  7.8821521406873396e-01 7.3056036022545856e-01 4.2539870844884836e-01  7.8821204329132777e-01 7.3057497413872463e-01 4.2537248247732140e-01  7.8824160847837454e-01 7.3046742839339651e-01 4.2557192380594355e-01  7.8828972442996026e-01 7.3029208635409326e-01 4.2589695494166080e-01  7.8835619928520861e-01 7.3004840030805351e-01 4.2634816756090888e-01  7.8843936209091026e-01 7.2974138809286559e-01 4.2691587068807352e-01  7.8862135487264706e-01 7.2905502615373541e-01 4.2818017935655650e-01  7.8851361623797944e-01 7.2947714510935047e-01 4.2740720802407939e-01  7.8844880592329780e-01 7.2973114510651782e-01 4.2694174476564367e-01  7.8840597411674551e-01 7.2989956661675526e-01 4.2663365274549647e-01  7.8838118180989791e-01 7.3000259925556044e-01 4.2645013668593201e-01  7.8838152384597970e-01 7.2999150506407706e-01 4.2646182930675042e-01  7.8841713974497984e-01 7.2985606028793915e-01 4.2671359863156483e-01  7.8847145096150628e-01 7.2964180799705936e-01 4.2710539053932550e-01  7.8910727633791922e-01 7.2712748607664501e-01 4.3170106041676359e-01  7.8935582029889562e-01 7.2611015032869075e-01 4.3354911872909180e-01  7.8961060420071327e-01 7.2503843656811173e-01 4.3548688218254716e-01  7.8988182800648843e-01 7.2386464983180498e-01 4.3759896937842047e-01  7.9017472059634419e-01 7.2255874312652701e-01 4.3993700657932089e-01  7.9049270836514496e-01 7.2109690867184606e-01 4.4254078752818177e-01  7.9084036547842340e-01 7.1944638647671999e-01 4.4546491521764781e-01  7.9122503142837186e-01 7.1755664533710173e-01 4.4879402910400107e-01  7.9166456359012338e-01 7.1531721354437072e-01 4.5271574742285636e-01  7.9280738739278955e-01 7.0911537530874602e-01 4.6346765503550158e-01  7.9326085673251712e-01 7.0648746912812599e-01 4.6797761481175937e-01  7.9367082785129217e-01 7.0401011855112361e-01 4.7220261964083016e-01  7.9405042762386990e-01 7.0161520932904731e-01 4.7626170674853263e-01  7.9440677668315030e-01 6.9926869114414270e-01 4.8021510818147428e-01  7.9474079266452957e-01 6.9696991894875249e-01 4.8406526160027047e-01  7.9505284839199719e-01 6.9472380438999093e-01 4.8780564156522349e-01  7.9534235184563928e-01 6.9254322919244993e-01 4.9141666238104426e-01  7.9560820573394153e-01 6.9044766761319931e-01 4.9486834520592277e-01  7.9584806912410777e-01 6.8846890737154876e-01 4.9811090473015784e-01  7.9605917287064887e-01 6.8664870108611675e-01 5.0107933881383127e-01  7.9623584995573515e-01 6.8506054861276433e-01 5.0365805175854050e-01  7.9647049650069790e-01 6.8281603463739615e-01 5.0728000817727625e-01  7.9662559090526108e-01 6.8123754086065158e-01 5.0981195205631047e-01  7.9680242431931492e-01 6.7936498023182312e-01 5.1280396741255263e-01  7.9700640147049118e-01 6.7710483147062694e-01 5.1639966698441975e-01  7.9744520607520952e-01 6.7173102811329199e-01 5.2488389185485762e-01  7.9749229116648301e-01 6.7106140123186098e-01 5.2593221541161539e-01  7.9750984457002849e-01 6.7079373825733979e-01 5.2634988426913742e-01  7.9751019918487343e-01 6.7078824129665970e-01 5.2635845355582456e-01  7.9749965674394585e-01 6.7096211786878279e-01 5.2608791694832024e-01  7.9749286577715106e-01 6.7110771740469721e-01 5.2586302962980425e-01  7.9750711030241650e-01 6.7099364004113460e-01 5.2604658439074337e-01  7.9761241063695099e-01 6.6969026158763156e-01 5.2809404769100143e-01  7.9766426648841793e-01 6.6892468571618724e-01 5.2928633401136027e-01  7.9770468174560005e-01 6.6825227144440302e-01 5.3032813122051192e-01  7.9773090650247447e-01 6.6778213256738772e-01 5.3105429370953627e-01  7.9773952910995516e-01 6.6762437211750869e-01 5.3129773222558285e-01  7.9773281327481405e-01 6.6775586656076658e-01 5.3109524475279024e-01  7.9771366105952324e-01 6.6812990796515637e-01 5.3051908890142074e-01  7.9768262059823880e-01 6.6877271383499282e-01 5.2953022662247606e-01  7.9766957698219310e-01 6.7010834046415435e-01 5.2752236811802322e-01  7.9770807609310823e-01 6.7005223213043963e-01 5.2764217887647924e-01  7.9774281015632342e-01 6.6996123144001174e-01 5.2781048809676279e-01  7.9777069920943333e-01 6.6990630249976713e-01 5.2791841605104184e-01  7.9779030864268241e-01 6.6989784255536833e-01 5.2794915803866549e-01  7.9780207189172081e-01 6.7007142288596555e-01 5.2770034376209585e-01  7.9780290201864923e-01 6.7038570633048999e-01 5.2723088481657854e-01  7.9780132187