<?xml version="1.0"?>
<VTKFile type="UnstructuredGrid"  version="0.1"  >
<UnstructuredGrid>
<Piece  NumberOfPoints="7288" NumberOfCells="14083">
<Points>
<DataArray  type="Float64"  NumberOfComponents="3"  format="ascii">239.8 188 0  250.2 180 0  258.2 172.4 0  257 169.4 0  259.9 157.4 0  258.7 150.3 0  261 143.5 0  251.7 144.4 0  250 138.7 0  247 138.1 0  245.2 130.8 0  247.3 126.4 0  242.7 118.6 0  231.2 107.7 0  226 102.4 0  226.5 93.90000000000001 0  224.5 91.19999999999999 0  224.5 84.09999999999999 0  234.5 73.80000000000001 0  228.4 68.90000000000001 0  230 70 0  233.4 68 0  222.7 61.5 0  220.6 45.5 0  223.4 49.40000000000001 0  224 47 0  221.8 43.09999999999999 0  221 38.40000000000001 0  219.5 38.5 0  219.4 41.69999999999999 0  217.1 36.90000000000001 0  209.7 36 0  209.5 31.69999999999999 0  205.1 29.90000000000001 0  201.5 30.40000000000001 0  199.2 38.69999999999999 0  201.8 41.40000000000001 0  194.8 53.80000000000001 0  196.1 57.69999999999999 0  193 59 0  191.4 66.09999999999999 0  193.5 66.5 0  194.1 64.40000000000001 0  195.6 64.69999999999999 0  195.4 72.40000000000001 0  199.5 77.30000000000001 0  197.7 86.90000000000001 0  200.6 87.5 0  201.5 91 0  198 94.80000000000001 0  198.6 100 0  197.3 105.4 0  198 109.5 0  197 112.7 0  198.3 116.1 0  201.3 122 0  207.2 121 0  208.1 126.7 0  205.6 127.9 0  209.1 134.9 0  210.9 144.4 0  210.1 147.9 0  213 148.4 0  215.4 149.3 0  215.1 152.8 0  219.9 159.7 0  220.3 163.2 0  218.7 164.9 0  219.9 166.7 0  221.9 169.7 0  220 170.3 0  224.9 174.7 0  229.8 177.4 0  229.7 181 0  228 172.9 0  239 178 0  240.4 180 0  239 181.5 0  241.2 185.9 0  242.95 187.99 0  240.5875 187.9975 0  241.375 187.995 0  242.1625 187.9925 0  243.6090909090879 187.2636363636397 0  244.2681818181765 186.5372727272785 0  244.9272727272692 185.810909090913 0  245.5863636363531 185.0845454545571 0  246.245454545445 184.3581818181923 0  246.9045454545351 183.6318181818295 0  247.5636363636303 182.9054545454612 0  248.2227272727197 182.1790909090992 0  248.8818181818179 181.4527272727275 0  249.5409090909066 180.7263636363664 0  250.8666666666961 179.3666666666387 0  251.5333333334033 178.7333333332668 0  252.2000000000994 178.0999999999055 0  252.8666666668011 177.466666666539 0  253.5333333335083 176.8333333331671 0  254.2000000002044 176.1999999998058 0  254.8666666669005 175.5666666664445 0  255.5333333336077 174.9333333330727 0  256.2000000002685 174.2999999997449 0  256.8666666668457 173.6666666664966 0  257.5333333334283 173.033333333243 0  257.9000000000077 171.6500000000191 0  257.6000000000015 170.9000000000038 0  257.2999999999954 170.1499999999885 0  257.2230769230778 168.4769230769195 0  257.4461538461543 167.5538461538442 0  257.6692307692309 166.6307692307688 0  257.8923076923074 165.7076923076935 0  258.115384615384 164.7846153846181 0  258.3384615384605 163.8615384615427 0  258.5615384615395 162.9384615384572 0  258.784615384616 162.0153846153819 0  259.0076923076926 161.0923076923065 0  259.2307692307691 160.1692307692311 0  259.4538461538457 159.2461538461558 0  259.6769230769222 158.3230769230804 0  259.750000000001 156.512500000006 0  259.6000000000014 155.6250000000082 0  259.4500000000029 154.7375000000176 0  259.3000000000018 153.8500000000108 0  259.1500000000007 152.962500000004 0  259.0000000000004 152.0750000000026 0  258.849999999999 151.187499999994 0  258.9875000000052 149.4499999999846 0  259.275000000002 148.5999999999941 0  259.5624999999954 147.7500000000135 0  259.849999999995 146.900000000015 0  260.1374999999945 146.0500000000164 0  260.4249999999913 145.2000000000259 0  260.7124999999948 144.3500000000154 0  260.0700000000398 143.5899999999961 0  259.1400000000573 143.6799999999944 0  258.2100000000351 143.7699999999966 0  257.2800000000262 143.8599999999975 0  256.350000000011 143.9499999999989 0  255.4199999999881 144.0400000000011 0  254.4899999999726 144.1300000000026 0  253.5599999999944 144.2200000000005 0  252.6300000000009 144.3099999999999 0  251.4166666666658 143.4499999999971 0  251.1333333333388 142.5000000000182 0  250.8500000000015 141.5500000000051 0  250.5666666666612 140.5999999999818 0  250.2833333333342 139.6500000000029 0  249.2500000000005 138.5500000000001 0  248.5000000000011 138.4000000000002 0  247.7499999999995 138.2499999999999 0  246.7750000000005 137.1875000000023 0  246.5500000000021 136.2750000000085 0  246.3250000000036 135.3625000000147 0  246.1000000000042 134.450000000017 0  245.8750000000022 133.5375000000088 0  245.650000000003 132.6250000000124 0  245.4250000000046 131.7125000000187 0  245.619999999996 129.9200000000084 0  246.0399999999992 129.0400000000017 0  246.4599999999987 128.1600000000028 0  246.8800000000001 127.2799999999997 0  246.8399999999988 125.6199999999979 0  246.3799999999984 124.8399999999973 0  245.9199999999991 124.0599999999985 0  245.4600000000036 123.2800000000062 0  245.0000000000049 122.5000000000082 0  244.5400000000036 121.7200000000062 0  244.0800000000033 120.9400000000056 0  243.6200000000016 120.1600000000027 0  243.1600000000012 119.3800000000021 0  241.9812499999996 117.9187499999997 0  241.2625000000007 117.2375000000007 0  240.5437500000017 116.5562500000017 0  239.8250000000041 115.875000000004 0  239.1062500000066 115.1937500000063 0  238.3875000000076 114.5125000000072 0  237.6687500000087 113.8312500000082 0  236.9500000000083 113.1500000000079 0  236.231250000008 112.4687500000076 0  235.512500000009 111.7875000000085 0  234.7937500000045 111.1062500000043 0  234.0750000000042 110.4250000000039 0  233.3562500000066 109.7437500000062 0  232.6375000000021 109.062500000002 0  231.9187500000031 108.381250000003 0  230.5500000000004 107.0375000000004 0  229.9000000000021 106.3750000000021 0  229.2500000000038 105.7125000000039 0  228.6000000000041 105.0500000000042 0  227.9500000000018 104.3875000000018 0  227.2999999999952 103.7249999999951 0  226.6500000000024 103.0625000000024 0  226.0555555555555 101.4555555555556 0  226.1111111111111 100.5111111111111 0  226.1666666666667 99.56666666666668 0  226.2222222222222 98.62222222222223 0  226.2777777777778 97.67777777777778 0  226.3333333333333 96.73333333333335 0  226.3888888888889 95.78888888888889 0  226.4444444444445 94.84444444444446 0  226 93.22499999999999 0  225.5000000000026 92.55000000000358 0  225.0000000000026 91.87500000000358 0  224.5 90.31250000000068 0  224.5 89.4250000000097 0  224.5 88.53750000001317 0  224.5 87.65000000001388 0  224.5 86.76250000001457 0  224.5 85.87500000001248 0  224.5 84.9874999999993 0  225.1666666666659 83.41333333333409 0  225.8333333333319 82.72666666666818 0  226.4999999999978 82.04000000000228 0  227.1666666666649 81.35333333333514 0  227.8333333333301 80.66666666667 0  228.4999999999942 79.980000000006 0  229.1666666666601 79.2933333333401 0  229.8333333333316 78.60666666666847 0  230.4999999999975 77.92000000000257 0  231.1666666666644 77.23333333333572 0  231.8333333333295 76.54666666667057 0  232.4999999999972 75.86000000000287 0  233.1666666666681 75.17333333333181 0  233.8333333333368 74.48666666666306 0  233.7499999999995 73.16666666666629 0  233.0000000000018 72.53333333333488 0  232.2500000000014 71.90000000000116 0  231.5000000000009 71.26666666666743 0  230.7500000000005 70.63333333333372 0  229.233333333333 68.75000000000006 0  230.0666666666665 68.60000000000004 0  230.8999999999995 68.45000000000009 0  231.7333333333325 68.30000000000015 0  232.566666666667 68.14999999999995 0  232.5499999999897 68.50000000000607 0  231.7 69 0  230.8500000000103 69.49999999999393 0  227.8300000000008 68.16000000000106 0  227.2600000000064 67.42000000000837 0  226.6900000000077 66.68000000001001 0  226.1200000000024 65.94000000000314 0  225.5500000000108 65.20000000001409 0  224.9800000000098 64.46000000001268 0  224.4100000000007 63.72000000000098 0  223.8399999999971 62.97999999999621 0  223.2699999999993 62.23999999999915 0  222.753846153846 60.56923076923239 0  222.8076923076921 59.63846153846478 0  222.8615384615381 58.70769230769827 0  222.9153846153842 57.77692307693071 0  222.9692307692302 56.84615384616315 0  223.0230769230761 55.91538461539836 0  223.0769230769224 54.98461538462665 0  223.1307692307688 54.05384615385345 0  223.184615384615 53.12307692308312 0  223.2384615384611 52.19230769231556 0  223.2923076923071 51.26153846154906 0  223.3461538461533 50.33076923077847 0  222.8400000000024 48.62000000000327 0  222.2800000000047 47.84000000000661 0  221.7200000000005 47.06000000000071 0  221.1600000000003 46.28000000000039 0  221.4500000000116 45.87500000000512 0  222.3 46.25 0  223.1499999999884 46.62499999999488 0  223.5600000000055 46.22000000000981 0  223.1199999999987 45.43999999999767 0  222.6800000000061 44.66000000001075 0  222.2399999999969 43.8799999999944 0  221.6400000000004 42.16000000000253 0  221.4800000000009 41.22000000000548 0  221.3200000000014 40.28000000000801 0  221.1600000000009 39.34000000000556 0  220.25 38.45 0  219.4749999999999 39.30000000000165 0  219.45 40.09999999999999 0  219.425 40.90000000000112 0  219.0166666666641 40.89999999999463 0  218.6333333333375 40.10000000000875 0  218.2500000000016 39.30000000000339 0  217.8666666666635 38.49999999999351 0  217.483333333337 37.70000000000762 0  216.1750000000165 36.78750000000201 0  215.2500000000275 36.67500000000335 0  214.3250000000385 36.56250000000469 0  213.4000000000277 36.45000000000337 0  212.4750000000059 36.33750000000072 0  211.5499999999838 36.22499999999803 0  210.6249999999835 36.11249999999799 0  209.6600000000001 35.14000000000318 0  209.6200000000001 34.28000000000268 0  209.5800000000001 33.42000000000284 0  209.5399999999998 32.55999999999681 0  208.6200000000117 31.34000000000476 0  207.7400000000138 30.98000000000564 0  206.8600000000162 30.62000000000662 0  205.9800000000174 30.26000000000711 0  204.2000000000054 30.02499999999925 0  203.2999999999946 30.15000000000076 0  202.3999999999945 30.27500000000076 0  201.2444444444438 31.32222222222468 0  200.9888888888895 32.24444444
[...]
<PointData  Vectors="f_12"> 
<DataArray  type="Float64"  Name="f_12"  NumberOfComponents="3" format="ascii">6.9586076346031023e-01 7.8989960717492791e-01 1.9209179254192205e-01  7.2597362267040255e-01 7.7812790565528500e-01 2.6627595493640771e-01  7.5422176232293781e-01 7.1128180293425802e-01 4.1427571812761721e-01  7.5369343650006504e-01 6.2638141063865216e-01 5.3764261273413605e-01  6.1558195876208743e-01 1.5593197164571920e-01 6.6889179121372255e-01  5.3440519857226476e-01 1.1666881183470404e-01 3.4934419822141999e-01  5.1901536740598064e-01 1.0469864437805186e-01 2.8858727636032311e-01  5.6972988821972093e-01 3.0984174636616063e-01 3.4593506620313352e-01  6.4709533856173351e-01 5.4934106514281367e-01 3.8926403026292594e-01  6.6781853369833744e-01 5.9901038079823865e-01 3.8843718195378157e-01  7.0513042994647579e-01 6.4323452005202242e-01 4.2552331971449248e-01  7.1266110056770360e-01 6.2352971435867643e-01 4.6966602322794460e-01  6.6265782372020954e-01 3.3025508201988713e-01 6.9008066053470929e-01  7.0013463604906878e-01 3.0252724383342733e-01 8.1597439531874116e-01  7.4228326017634094e-01 6.0157043333543792e-01 5.5272869889381304e-01  6.8674142383400461e-01 7.3492754994942422e-01 2.5099628027445869e-01  6.5717066380942446e-01 7.0619020158182655e-01 2.1496434424672714e-01  5.6241882673885746e-01 4.9283913853232081e-01 1.4428536750185073e-01  4.8670770157402077e-01 1.8802959202891203e-01 1.0075415701357132e-01  5.1653206601253487e-01 3.1158628882399414e-01 1.2600773303764848e-01  5.0256417480866200e-01 2.5951884898875482e-01 1.1195207140476579e-01  4.9736729181879202e-01 2.4288084848716673e-01 1.0464810261248381e-01  6.7378419207412610e-01 6.3715842979100934e-01 3.4654809605731685e-01  7.8448723654478258e-01 6.7395517891618117e-01 5.0888590031032233e-01  7.7172426087668444e-01 6.9261629091605748e-01 4.6609561345141798e-01  7.8692672107774753e-01 6.7796905772322769e-01 5.0559618248700733e-01  7.8764573213968481e-01 6.7244314394903160e-01 5.1457477135608731e-01  7.8986048864111191e-01 6.7555006398530903e-01 5.1219645813771686e-01  7.8985688288378264e-01 6.7547701547058958e-01 5.1230200245627056e-01  7.8909762891683188e-01 6.6524671947196135e-01 5.2675133960110321e-01  7.9257842610782203e-01 6.4317507277688046e-01 5.6268936791415258e-01  7.9601389418083524e-01 6.4343744871354036e-01 5.6550070946209186e-01  7.9790694969741915e-01 6.5617282194824555e-01 5.4855675529418213e-01  7.9830378379090039e-01 6.5988126264616387e-01 5.4342994405514389e-01  7.9834507518550091e-01 6.5986298324636572e-01 5.4349326928249686e-01  7.9677498377324196e-01 6.4150880971621471e-01 5.6900577617541814e-01  7.9393282052481673e-01 6.2386198414094030e-01 5.9175724682885245e-01  7.7036669667659763e-01 5.8205844050542466e-01 6.2440698880022416e-01  7.5091835837073095e-01 5.8539287298334730e-01 5.9129742072321156e-01  7.3884479665642222e-01 5.9204785530454507e-01 5.6306784173573399e-01  6.5981002310882997e-01 6.5048354116399565e-01 2.9949054534738401e-01  6.6220462646606049e-01 6.4365770215812645e-01 3.1397742625611746e-01  7.1464368265636358e-01 6.0624119447843383e-01 4.9344105324837800e-01  6.9799584776576806e-01 6.1581302958803485e-01 4.4063186750454458e-01  6.1487902776357273e-01 5.8891092909500697e-01 2.3220469890919307e-01  5.2792067721041325e-01 3.6775051693717981e-01 1.2526450566795244e-01  4.9430724933111486e-01 2.4786642222146166e-01 9.0328883910485325e-02  5.0558998663925958e-01 2.9771534980429282e-01 9.6451963723080014e-02  5.3733994728582157e-01 4.3529538616159996e-01 1.0637042721318331e-01  5.5360268545635649e-01 5.0845049920184004e-01 1.0208855603939282e-01  5.8797071462481498e-01 5.9966051864016723e-01 1.3049802776486544e-01  6.3497939099047185e-01 6.8639442569946607e-01 1.8020599366141299e-01  6.7549133057401334e-01 7.2051607058993261e-01 2.4401896146505558e-01  6.9998393773706258e-01 7.2933838676498952e-01 2.8915549995803785e-01  7.2060017175406088e-01 7.1676472158810056e-01 3.4917907030057660e-01  7.4614994607267082e-01 6.6931564769681018e-01 4.6509345408151453e-01  7.5458924912246506e-01 5.3823886384384989e-01 6.5883121783119791e-01  7.6695719144248742e-01 4.6576010812013757e-01 7.6718740250841821e-01  7.7539580126446428e-01 4.8858383739695627e-01 7.5077310040872969e-01  7.5391092630651579e-01 4.0388011165705012e-01 8.1778694923657258e-01  6.8560326730934351e-01 2.3754103994647818e-01 8.3433886652623612e-01  6.7277497680457787e-01 2.1551617701255965e-01 8.1805798811377517e-01  6.4794989860948815e-01 1.8965126688939749e-01 7.5524745829171880e-01  5.9175537749859841e-01 1.5333833338188729e-01 5.6978349899817438e-01  5.5224505504220667e-01 1.5040331116882685e-01 4.0943401412519137e-01  5.2879992228517880e-01 1.8661930440769328e-01 2.7813606105936983e-01  5.2606295362414601e-01 1.4584173047815890e-01 2.9417989605053568e-01  5.2767502250009202e-01 1.2879474109454558e-01 3.1269417643142977e-01  5.3314758479411684e-01 1.2139982195221627e-01 3.4187281136133185e-01  5.5091818846296947e-01 1.1564526008547323e-01 4.2465194113837440e-01  5.4321937543882315e-01 1.1180919800120694e-01 3.9339567346822440e-01  6.0086582417102330e-01 1.3696732096269396e-01 6.2836919672497149e-01  7.4772382480220168e-01 5.1934170297453863e-01 6.7127076550582143e-01  7.6551668056961464e-01 6.0703441451202744e-01 5.8421746592138668e-01  6.3651807868339350e-01 2.0468225557910036e-01 7.0267825230444114e-01  7.4812706454736544e-01 6.5848745068865788e-01 4.8229220644251469e-01  7.2669638122922320e-01 7.5038400122974147e-01 3.0862997539247317e-01  7.1567693392370069e-01 7.7509023146949141e-01 2.5199932465764407e-01  6.9933030469983026e-01 7.8899495738462877e-01 2.0030369057366693e-01  6.9714567698470908e-01 7.8986943473134685e-01 1.9472518730938657e-01  6.9603099701321258e-01 7.8988177277906446e-01 1.9245992419271796e-01  6.9639194904243551e-01 7.8986204265952087e-01 1.9321586640931665e-01  6.9679419049371782e-01 7.8986485930246486e-01 1.9402377691442152e-01  6.9805370274902623e-01 7.8979840660406420e-01 1.9664301596919270e-01  6.9967263420580272e-01 7.8962759054595888e-01 2.0010889220439446e-01  7.0174791604016973e-01 7.8934698513791779e-01 2.0460995386879652e-01  7.0415957665750906e-01 7.8892097892627533e-01 2.0994032180230537e-01  7.0684486683432535e-01 7.8830717811209783e-01 2.1602260806399670e-01  7.0971375010094884e-01 7.8749605204089224e-01 2.2268265096051582e-01  7.1277391592908312e-01 7.8637267606295591e-01 2.3009302169994400e-01  7.1595323225664542e-01 7.8493870851082481e-01 2.3810827571734658e-01  7.1918937623404844e-01 7.8318632125387400e-01 2.4661912872997319e-01  7.2253053248450150e-01 7.8092273103845977e-01 2.5600026892310107e-01  7.2914518327302180e-01 7.7519665767583890e-01 2.7620561263337379e-01  7.3217774827985749e-01 7.7197246645715767e-01 2.8626928918444766e-01  7.3516790584469105e-01 7.6815894072682001e-01 2.9709344469249843e-01  7.3810664742012710e-01 7.6371771770885721e-01 3.0872973095843453e-01  7.4095770297388730e-01 7.5863917379005530e-01 3.2114029633893743e-01  7.4368890903827112e-01 7.5293716383260556e-01 3.3425957408111434e-01  7.4627589265550776e-01 7.4641470615873418e-01 3.4835686281281741e-01  7.4865284965839951e-01 7.3915319579469063e-01 3.6320702959531403e-01  7.5073618598909897e-01 7.3135165935758684e-01 3.7837507397854453e-01  7.5244477472191884e-01 7.2331964308783980e-01 3.9326512164948929e-01  7.5366315666793104e-01 7.1590732965190151e-01 4.0640877565670913e-01  7.5448449410804275e-01 7.0447029104915637e-01 4.2492995834487712e-01  7.5479688497477992e-01 6.8883679800366537e-01 4.4875233220704180e-01  7.5474333186945786e-01 6.6443098683622914e-01 4.8457677807770605e-01  7.5081759662206304e-01 5.7659508376502500e-01 6.0223660901810194e-01  7.4644015840790101e-01 5.3108795136057108e-01 6.5539222293165944e-01  7.4027276004037101e-01 4.8589985687987747e-01 7.0163765167686731e-01  7.3225373599169052e-01 4.4074429500285833e-01 7.4061244621602396e-01  7.2243703464026476e-01 3.9618683531084187e-01 7.7101031732153114e-01  7.1097984240295187e-01 3.5307531696299999e-01 7.9151796828082299e-01  6.9813272693569206e-01 3.1236439835759400e-01 8.0114309322547606e-01  6.8421979302172908e-01 2.7487058872408898e-01 7.9962018729216755e-01  6.6966919596309538e-01 2.4147762807516621e-01 7.8720617730864406e-01  6.5481758704180992e-01 2.1250609358668607e-01 7.6495072296354394e-01  6.4031213518997021e-01 1.8836848238960285e-01 7.3534990124108390e-01  6.2674577906610918e-01 1.6921323229742888e-01 7.0131434993348785e-01  6.0491650801278385e-01 1.4590600802785275e-01 6.3363643539109415e-01  5.9284834172465672e-01 1.3659136824054394e-01 5.9048081097462990e-01  5.8079467057919087e-01 1.2907202554457298e-01 5.4467045215574084e-01  5.6941003651982425e-01 1.2360138721293880e-01 4.9923151041389402e-01  5.5906654855821825e-01 1.2002791815310329e-01 4.5632681272744696e-01  5.4991015612800542e-01 1.1797896172107171e-01 4.1724805633726203e-01  5.4184056695258587e-01 1.1705328014729492e-01 3.8207954098102709e-01  5.2874493084873431e-01 1.1530983231295620e-01 3.2513201223589250e-01  5.2513878730659380e-01 1.1397368942029901e-01 3.1001359603341810e-01  5.2274011815981869e-01 1.1217572328689866e-01 3.0052078847384173e-01  5.2112903072323191e-01 1.1025685962240810e-01 2.9456852443463533e-01  5.2008526502235808e-01 1.0828641801900168e-01 2.9114671335178199e-01  5.1944916337581448e-01 1.0651074686762524e-01 2.8940655111560154e-01  5.1911356438169309e-01 1.0519799047534199e-01 2.8871745314675390e-01  5.1912085657444296e-01 1.0548808859228678e-01 2.8856511399155160e-01  5.1947920452655383e-01 1.0830020897768777e-01 2.8839279883564189e-01  5.2018130481207725e-01 1.1357126780864957e-01 2.8815582002645762e-01  5.2141026834698112e-01 1.2172972558839079e-01 2.8830977307635974e-01  5.2344576727356129e-01 1.3342761164605701e-01 2.8951022729895221e-01  5.2665515627459192e-01 1.4944943149885381e-01 2.9258727757721364e-01  5.3155290744547590e-01 1.7100627424027381e-01 2.9850346089850377e-01  5.3884174900907800e-01 2.0005952759746123e-01 3.0810544607793822e-01  5.4988853320328834e-01 2.4090937095622783e-01 3.2242847999026003e-01  5.9331950767987596e-01 3.8624584289415353e-01 3.7008220647154561e-01  6.0991014898162288e-01 4.3784448904707757e-01 3.8257552609804574e-01  6.2365356591419630e-01 4.7982474823371779e-01 3.8850044333482919e-01  6.3464017806678819e-01 5.1285395898677510e-01 3.9023921909229847e-01  6.4277367715780886e-01 5.3692529027337099e-01 3.8987776262956086e-01  6.4927374759456713e-01 5.5510849342513302e-01 3.8902094274672205e-01  6.5354766314627133e-01 5.6595634491432734e-01 3.8869088211310682e-01  6.5935130689122912e-01 5.7986573210814807e-01 3.8847978404167011e-01  6.7803768022954636e-01 6.2140901222370915e-01 3.8758955163326592e-01  6.8468506070066426e-01 6.3483036377391910e-01 3.8735542962916619e-01  6.8975016767329378e-01 6.4360916785046918e-01 3.8839372225323837e-01  6.9378976441201989e-01 6.4887738111679760e-01 3.9114768520384691e-01  6.9708999411322403e-01 6.5112134322457071e-01 3.9597481814495411e-01  6.9987370126419657e-01 6.5068965648147437e-01 4.0311562872709228e-01  7.0236877099396533e-01 6.4788477953479351e-01 4.1277676263179813e-01  7.0800016380903330e-01 6.4014699486089266e-01 4.3624592993889727e-01  7.1007319550527204e-01 6.3731366465630945e-01 4.4478675672465989e-01  7.1155657307494846e-01 6.3343036848606837e-01 4.5346687257162160e-01  7.1243408401573349e-01 6.2840099125133342e-01 4.6240059797193667e-01  7.1212032845114059e-01 6.1454391660682794e-01 4.8086564282042732e-01  7.1059769774867576e-01 5.9643366831073175e-01 5.0217138079444168e-01  7.0806370038848154e-01 5.7159761559868261e-01 5.2968997334562995e-01  7.0441611388153291e-01 5.4137020863719110e-01 5.6067396801058644e-01  6.9953971088391920e-01 5.0701652546803022e-01 5.9244463463729868e-01  6.9349029400264051e-01 4.7006153029238285e-01 6.2244637952764081e-01  6.8640022547524548e-01 4.3210253998737608e-01 6.4840747203315596e-01  6.7848333304492281e-01 3.9461528678366414e-01 6.6880525637962462e-01  6.7027355337660544e-01 3.5969374953638966e-01 6.8271860836684206e-01  6.5393978755001136e-01 3.0002111168231527e-01 6.9212591883361529e-01  6.4455846058543209e-01 2.6978388680047194e-01 6.8930301198259092e-01  6.3569355854118137e-01 2.4260291932481234e-01 6.8292839292333951e-01  6.2824380866111451e-01 2.1981955651569057e-01 6.7560091785745768e-01  6.2270595890199210e-01 2.0170512206374563e-01 6.6985221319960131e-01  6.1944564197970731e-01 1.8832887991868505e-01 6.6781140302849695e-01  6.1874286968965186e-01 1.7963759598524509e-01 6.7121083366882317e-01  6.2064961754371273e-01 1.7547390703515442e-01 6.8069573204099998e-01  6.2501838844209612e-01 1.7566915229432259e-01 6.9580534868290733e-01  6.3177585743529707e-01 1.8033670278436106e-01 7.1580888956763522e-01  6.4060616480943766e-01 1.8948664874252805e-01 7.3888988280903101e-01  6.5104774298786061e-01 2.0308535226472840e-01 7.6257465837845251e-01  6.6282620042848439e-01 2.2143473101456831e-01 7.8471198502048956e-01  6.7518106127023569e-01 2.4420154605623001e-01 8.0207665461536481e-01  6.8779062295053983e-01 2.7137621704681414e-01 8.1303449691744489e-01  7.1093024186720244e-01 3.3460688430876473e-01 8.1050030303223297e-01  7.2045207652428156e-01 3.6827383528998536e-01 7.9712072816615498e-01  7.2860653710337309e-01 4.0316776768502510e-01 7.7644478279502749e-01  7.3517627683286113e-01 4.3914275788356222e-01 7.4839353172686407e-01  7.4006609579906146e-01 4.7581782304673259e-01 7.1370659386531310e-01  7.4314178322341895e-01 5.1353529725258951e-01 6.7203145497555150e-01  7.4410973154299931e-01 5.5359787399975724e-01 6.2128414640499363e-01  7.3748697477113223e-01 6.4483606513979430e-01 4.8339830759890678e-01  7.3192341600103628e-01 6.7355127973677720e-01 4.3210650792735422e-01  7.2562420456894650e-01 6.9493113648149141e-01 3.8936758980422859e-01  7.1880570258025378e-01 7.1089486407207358e-01 3.5305693310019187e-01  7.1170340568511936e-01 7.2237508154306296e-01 3.2232940928410264e-01  7.0457110511208021e-01 7.2992636202819627e-01 2.9685420653540451e-01  6.9768711644922732e-01 7.3408584814764455e-01 2.7637555374520723e-01  6.9143043346043498e-01 7.3546548803104528e-01 2.6079110235817338e-01  6.8262730822666229e-01 7.3272739857284519e-01 2.4435810170097114e-01  6.7628503685909758e-01 7.2788835816818842e-01 2.3557112721405055e-01  6.6820702600621729e-01 7.1980308416154615e-01 2.2606923410554983e-01  6.4475900824297383e-01 6.8790578208897279e-01 2.0420534099027798e-01  6.3401559684511877e-01 6.6949349515146472e-01 1.9600261312547948e-01  6.2358732399192585e-01 6.4929405504197935e-01 1.8865956201895470e-01  6.1302829043299867e-01 6.2672668851458146e-01 1.8143877896608326e-01  6.0213439160032001e-01 6.0135392472104265e-01 1.7395148400093932e-01  5.9060620049883394e-01 5.7241345488461493e-01 1.6565917284776291e-01  5.7812021183405304e-01 5.3867568190763793e-01 1.5631285148077256e-01  5.4721051046853597e-01 4.4449742703256484e-01 1.3292939661192821e-01  5.3618870545065145e-01 4.0670170551341628e-01 1.2488373407914204e-01  5.2702574097104682e-01 3.7318816071761796e-01 1.1841695882217471e-01  5.1921228156107191e-01 3.4286996417376758e-01 1.1321626866084615e-01  5.1252997340367989e-01 3.1544268344515475e-01 1.0913986679442689e-01  5.0684562709310688e-01 2.9080898579452996e-01 1.0606245545451520e-01  5.0206458528870435e-01 2.6894812110192451e-01 1.0385985430464939e-01  4.9809839707110865e-01 2.4983093932743206e-01 1.0238968276868787e-01  4.9485456908790443e-01 2.3339621716535719e-01 1.0148845648884536e-01  4.9225195780970027e-01 2.1958398404523521e-01 1.0100538070708114e-01  4.9021594692434634e-01 2.0833471207078491e-01 1.0079711950312698e-01  4.8868446854324971e-01 1.9959347410790101e-01 1.0074409900612236e-01  4.8761110125454149e-01 1.9332884575234277e-01 1.0075383519798721e-01  4.8697396722250802e-01 1.8956017097245967e-01 1.0077473473283660e-01  4.8712950147034922e-01 1.9011681367639274e-01 1.0098521903505001e-01  4.8833235166262384e-01 1.9593975049013812e-01 1.0170307884371525e-01  4.9039335923784494e-01 2.0569474403123017e-01 1.0301294075998015e-01  4.9337811178431418e-01 2.1943245597555816e-01 1.0503630724646328e-01  4.9738817388640161e-01 2.3727083386993456e-01 1.0795487200262906e-01  5.0719936328836168e-01 2.7758806921755935e-01 1.1633386051478824e-01  5.0271947101051728e-01 2.6126232296719221e-01 1.1147491127752454e-01  5.0029894904044270e-01 2.5278535818032333e-01 1.0853998763684736e-01  4.9874605141185269e-01 2.4749794383658291e-01 1.0651828602954377e-01  4.9781110522589050e-01 2.4436133644200478e-01 1.0525621036661476e-01  4.9790042975148380e-01 2.4465951188046300e-01 1.0537836102857422e-01  4.9913714737490888e-01 2.4880244583744390e-01 1.0704975558547083e-01  5.0101605317047559e-01 2.5508621896673028e-01 1.0955477363609609e-01  5.3080534311972227e-01 3.6058008346802861e-01 1.4167783409121379e-01  5.4390939561007823e-01 4.0189522466896538e-01 1.5709714817413672e-01  5.5746902130084841e-01 4.4074642172061185e-01 1.7408915921105567e-01  5.7173412290905656e-01 4.7746137101741581e-01 1.9304246996917057e-01  5.8670781486068213e-01 5.1156856553963592e-01 2.1405644390170372e-01  6.0228106511036450e-01 5.4251636828187799e-01 2.3694909337060785e-01  6.1838982410433374e-01 5.7002616160644692e-01 2.6146937833614980e-01  6.3508485510231671e-01 5.9419669810012121e-01 2.8738211019220294e-01  6.5277837872169775e-01 6.1572211319813375e-01 3.1480914468656979e-01  6.9325257416577135e-01 6.5434565154017377e-01 3.7421544683143337e-01  7.0717522806743172e-01 6.6539208925636695e-01 3.9216774070623062e-01  7.1864124016219399e-01 6.7386077418557289e-01 4.0531266413432149e-01  7.2832158984933915e-01 6.8058466469237999e-01 4.1512319082679716e-01  7.3666091973524128e-01 6.8593901171772065e-01 4.2284095571797570e-01  7.4385698346790297e-01 6.9005819377665611e-01 4.2923440040215882e-01  7.5007948142269965e-01 6.9301251020652932e-01 4.3494344067939195e-01  7.5545385824091504e-01 6.9487698587036806e-01 4.4038694004061629e-01  7.6008047727324235e-01 6.9574706359633731e-01 4.4581364602818513e-01  7.6402066329191920e-01 6.9576494588477933e-01 4.5127051228625920e-01  7.6732500352741406e-01 6.9507017874440313e-01 4.5674503137469735e-01  7.6998877060517756e-01 6.9384356974225758e-01 4.6205158041612188e-01  7.7340251767267532e-01 6.9037793917923318e-01 4.7151727532764864e-01  7.7559853490110686e-01 6.8687799069700239e-01 4.7940271696467601e-01  7.7804305187891898e-01 6.8268544263212394e-01 4.8855002159091887e-01  7.8077943582305365e-01 6.7823391216568096e-01 4.9834233669953187e-01  7.8620439954657184e-01 6.7551769071184908e-01 5.0845847790184751e-01  7.8670406730915776e-01 6.7681704982915802e-01 5.0707190086336029e-01  7.8687522921190645e-01 6.7763940241663889e-01 5.0603230581221892e-01  7.8687864575624478e-01 6.7765732364575992e-01 5.0600927016314334e-01  7.8678891418844721e-01 6.7689308445000518e-01 5.0705112732033586e-01  7.8676887572563081e-01 6.7567420488055818e-01 5.0884269849613750e-01  7.8702364990863016e-01 6.7410635238073147e-01 5.1144524087457466e-01  7.8844333722018445e-01 6.7168753570598094e-01 5.1652816534420964e-01  7.8906253865802267e-01 6.7223931649577318e-01 5.1633886794485928e-01  7.8950070170898490e-01 6.7365305052316404e-01 5.1467203951989038e-01  7.8976682098639639e-01 6.7499886016249067e-01 5.1292749680473881e-01  7.8985323340358737e-01 6.7547953784506864e-01 5.1229462015246163e-01  7.8979229923381511e-01 6.7498951971137588e-01 5.1296631342819032e-01  7.8961965993183059e-01 6.7360009035984392e-01 5.1486813224514905e-01  7.8937180865439927e-01 6.7085223451282694e-01 5.1871079032045875e-01  7.8997739850911020e-01 6.5680429924230788e-01 5.4012289880966258e-01  7.9074478249454505e-01 6.5188943924836573e-01 5.4812786910964806e-01  7.9140779610172352e-01 6.4839617301161634e-01 5.5391101713033375e-01  7.9195445210419646e-01 6.4582099112514146e-01 5.5821772730682495e-01  7.9236290364834439e-01 6.4406394292522418e-01 5.6118340978944148e-01  7.9275204934339460e-01 6.4237260961279752e-01 5.6402420769614570e-01  7.9302464921660065e-01 6.4119982706494849e-01 5.6598924031747244e-01  7.9335448114