<?xml version="1.0"?>
<VTKFile type="UnstructuredGrid"  version="0.1"  >
<UnstructuredGrid>
<Piece  NumberOfPoints="7288" NumberOfCells="14083">
<Points>
<DataArray  type="Float64"  NumberOfComponents="3"  format="ascii">239.8 188 0  250.2 180 0  258.2 172.4 0  257 169.4 0  259.9 157.4 0  258.7 150.3 0  261 143.5 0  251.7 144.4 0  250 138.7 0  247 138.1 0  245.2 130.8 0  247.3 126.4 0  242.7 118.6 0  231.2 107.7 0  226 102.4 0  226.5 93.90000000000001 0  224.5 91.19999999999999 0  224.5 84.09999999999999 0  234.5 73.80000000000001 0  228.4 68.90000000000001 0  230 70 0  233.4 68 0  222.7 61.5 0  220.6 45.5 0  223.4 49.40000000000001 0  224 47 0  221.8 43.09999999999999 0  221 38.40000000000001 0  219.5 38.5 0  219.4 41.69999999999999 0  217.1 36.90000000000001 0  209.7 36 0  209.5 31.69999999999999 0  205.1 29.90000000000001 0  201.5 30.40000000000001 0  199.2 38.69999999999999 0  201.8 41.40000000000001 0  194.8 53.80000000000001 0  196.1 57.69999999999999 0  193 59 0  191.4 66.09999999999999 0  193.5 66.5 0  194.1 64.40000000000001 0  195.6 64.69999999999999 0  195.4 72.40000000000001 0  199.5 77.30000000000001 0  197.7 86.90000000000001 0  200.6 87.5 0  201.5 91 0  198 94.80000000000001 0  198.6 100 0  197.3 105.4 0  198 109.5 0  197 112.7 0  198.3 116.1 0  201.3 122 0  207.2 121 0  208.1 126.7 0  205.6 127.9 0  209.1 134.9 0  210.9 144.4 0  210.1 147.9 0  213 148.4 0  215.4 149.3 0  215.1 152.8 0  219.9 159.7 0  220.3 163.2 0  218.7 164.9 0  219.9 166.7 0  221.9 169.7 0  220 170.3 0  224.9 174.7 0  229.8 177.4 0  229.7 181 0  228 172.9 0  239 178 0  240.4 180 0  239 181.5 0  241.2 185.9 0  242.95 187.99 0  240.5875 187.9975 0  241.375 187.995 0  242.1625 187.9925 0  243.6090909090879 187.2636363636397 0  244.2681818181765 186.5372727272785 0  244.9272727272692 185.810909090913 0  245.5863636363531 185.0845454545571 0  246.245454545445 184.3581818181923 0  246.9045454545351 183.6318181818295 0  247.5636363636303 182.9054545454612 0  248.2227272727197 182.1790909090992 0  248.8818181818179 181.4527272727275 0  249.5409090909066 180.7263636363664 0  250.8666666666961 179.3666666666387 0  251.5333333334033 178.7333333332668 0  252.2000000000994 178.0999999999055 0  252.8666666668011 177.466666666539 0  253.5333333335083 176.8333333331671 0  254.2000000002044 176.1999999998058 0  254.8666666669005 175.5666666664445 0  255.5333333336077 174.9333333330727 0  256.2000000002685 174.2999999997449 0  256.8666666668457 173.6666666664966 0  257.5333333334283 173.033333333243 0  257.9000000000077 171.6500000000191 0  257.6000000000015 170.9000000000038 0  257.2999999999954 170.1499999999885 0  257.2230769230778 168.4769230769195 0  257.4461538461543 167.5538461538442 0  257.6692307692309 166.6307692307688 0  257.8923076923074 165.7076923076935 0  258.115384615384 164.7846153846181 0  258.3384615384605 163.8615384615427 0  258.5615384615395 162.9384615384572 0  258.784615384616 162.0153846153819 0  259.0076923076926 161.0923076923065 0  259.2307692307691 160.1692307692311 0  259.4538461538457 159.2461538461558 0  259.6769230769222 158.3230769230804 0  259.750000000001 156.512500000006 0  259.6000000000014 155.6250000000082 0  259.4500000000029 154.7375000000176 0  259.3000000000018 153.8500000000108 0  259.1500000000007 152.962500000004 0  259.0000000000004 152.0750000000026 0  258.849999999999 151.187499999994 0  258.9875000000052 149.4499999999846 0  259.275000000002 148.5999999999941 0  259.5624999999954 147.7500000000135 0  259.849999999995 146.900000000015 0  260.1374999999945 146.0500000000164 0  260.4249999999913 145.2000000000259 0  260.7124999999948 144.3500000000154 0  260.0700000000398 143.5899999999961 0  259.1400000000573 143.6799999999944 0  258.2100000000351 143.7699999999966 0  257.2800000000262 143.8599999999975 0  256.350000000011 143.9499999999989 0  255.4199999999881 144.0400000000011 0  254.4899999999726 144.1300000000026 0  253.5599999999944 144.2200000000005 0  252.6300000000009 144.3099999999999 0  251.4166666666658 143.4499999999971 0  251.1333333333388 142.5000000000182 0  250.8500000000015 141.5500000000051 0  250.5666666666612 140.5999999999818 0  250.2833333333342 139.6500000000029 0  249.2500000000005 138.5500000000001 0  248.5000000000011 138.4000000000002 0  247.7499999999995 138.2499999999999 0  246.7750000000005 137.1875000000023 0  246.5500000000021 136.2750000000085 0  246.3250000000036 135.3625000000147 0  246.1000000000042 134.450000000017 0  245.8750000000022 133.5375000000088 0  245.650000000003 132.6250000000124 0  245.4250000000046 131.7125000000187 0  245.619999999996 129.9200000000084 0  246.0399999999992 129.0400000000017 0  246.4599999999987 128.1600000000028 0  246.8800000000001 127.2799999999997 0  246.8399999999988 125.6199999999979 0  246.3799999999984 124.8399999999973 0  245.9199999999991 124.0599999999985 0  245.4600000000036 123.2800000000062 0  245.0000000000049 122.5000000000082 0  244.5400000000036 121.7200000000062 0  244.0800000000033 120.9400000000056 0  243.6200000000016 120.1600000000027 0  243.1600000000012 119.3800000000021 0  241.9812499999996 117.9187499999997 0  241.2625000000007 117.2375000000007 0  240.5437500000017 116.5562500000017 0  239.8250000000041 115.875000000004 0  239.1062500000066 115.1937500000063 0  238.3875000000076 114.5125000000072 0  237.6687500000087 113.8312500000082 0  236.9500000000083 113.1500000000079 0  236.231250000008 112.4687500000076 0  235.512500000009 111.7875000000085 0  234.7937500000045 111.1062500000043 0  234.0750000000042 110.4250000000039 0  233.3562500000066 109.7437500000062 0  232.6375000000021 109.062500000002 0  231.9187500000031 108.381250000003 0  230.5500000000004 107.0375000000004 0  229.9000000000021 106.3750000000021 0  229.2500000000038 105.7125000000039 0  228.6000000000041 105.0500000000042 0  227.9500000000018 104.3875000000018 0  227.2999999999952 103.7249999999951 0  226.6500000000024 103.0625000000024 0  226.0555555555555 101.4555555555556 0  226.1111111111111 100.5111111111111 0  226.1666666666667 99.56666666666668 0  226.2222222222222 98.62222222222223 0  226.2777777777778 97.67777777777778 0  226.3333333333333 96.73333333333335 0  226.3888888888889 95.78888888888889 0  226.4444444444445 94.84444444444446 0  226 93.22499999999999 0  225.5000000000026 92.55000000000358 0  225.0000000000026 91.87500000000358 0  224.5 90.31250000000068 0  224.5 89.4250000000097 0  224.5 88.53750000001317 0  224.5 87.65000000001388 0  224.5 86.76250000001457 0  224.5 85.87500000001248 0  224.5 84.9874999999993 0  225.1666666666659 83.41333333333409 0  225.8333333333319 82.72666666666818 0  226.4999999999978 82.04000000000228 0  227.1666666666649 81.35333333333514 0  227.8333333333301 80.66666666667 0  228.4999999999942 79.980000000006 0  229.1666666666601 79.2933333333401 0  229.8333333333316 78.60666666666847 0  230.4999999999975 77.92000000000257 0  231.1666666666644 77.23333333333572 0  231.8333333333295 76.54666666667057 0  232.4999999999972 75.86000000000287 0  233.1666666666681 75.17333333333181 0  233.8333333333368 74.48666666666306 0  233.7499999999995 73.16666666666629 0  233.0000000000018 72.53333333333488 0  232.2500000000014 71.90000000000116 0  231.5000000000009 71.26666666666743 0  230.7500000000005 70.63333333333372 0  229.233333333333 68.75000000000006 0  230.0666666666665 68.60000000000004 0  230.8999999999995 68.45000000000009 0  231.7333333333325 68.30000000000015 0  232.566666666667 68.14999999999995 0  232.5499999999897 68.50000000000607 0  231.7 69 0  230.8500000000103 69.49999999999393 0  227.8300000000008 68.16000000000106 0  227.2600000000064 67.42000000000837 0  226.6900000000077 66.68000000001001 0  226.1200000000024 65.94000000000314 0  225.5500000000108 65.20000000001409 0  224.9800000000098 64.46000000001268 0  224.4100000000007 63.72000000000098 0  223.8399999999971 62.97999999999621 0  223.2699999999993 62.23999999999915 0  222.753846153846 60.56923076923239 0  222.8076923076921 59.63846153846478 0  222.8615384615381 58.70769230769827 0  222.9153846153842 57.77692307693071 0  222.9692307692302 56.84615384616315 0  223.0230769230761 55.91538461539836 0  223.0769230769224 54.98461538462665 0  223.1307692307688 54.05384615385345 0  223.184615384615 53.12307692308312 0  223.2384615384611 52.19230769231556 0  223.2923076923071 51.26153846154906 0  223.3461538461533 50.33076923077847 0  222.8400000000024 48.62000000000327 0  222.2800000000047 47.84000000000661 0  221.7200000000005 47.06000000000071 0  221.1600000000003 46.28000000000039 0  221.4500000000116 45.87500000000512 0  222.3 46.25 0  223.1499999999884 46.62499999999488 0  223.5600000000055 46.22000000000981 0  223.1199999999987 45.43999999999767 0  222.6800000000061 44.66000000001075 0  222.2399999999969 43.8799999999944 0  221.6400000000004 42.16000000000253 0  221.4800000000009 41.22000000000548 0  221.3200000000014 40.28000000000801 0  221.1600000000009 39.34000000000556 0  220.25 38.45 0  219.4749999999999 39.30000000000165 0  219.45 40.09999999999999 0  219.425 40.90000000000112 0  219.0166666666641 40.89999999999463 0  218.6333333333375 40.10000000000875 0  218.2500000000016 39.30000000000339 0  217.8666666666635 38.49999999999351 0  217.483333333337 37.70000000000762 0  216.1750000000165 36.78750000000201 0  215.2500000000275 36.67500000000335 0  214.3250000000385 36.56250000000469 0  213.4000000000277 36.45000000000337 0  212.4750000000059 36.33750000000072 0  211.5499999999838 36.22499999999803 0  210.6249999999835 36.11249999999799 0  209.6600000000001 35.14000000000318 0  209.6200000000001 34.28000000000268 0  209.5800000000001 33.42000000000284 0  209.5399999999998 32.55999999999681 0  208.6200000000117 31.34000000000476 0  207.7400000000138 30.98000000000564 0  206.8600000000162 30.62000000000662 0  205.9800000000174 30.26000000000711 0  204.2000000000054 30.02499999999925 0  203.2999999999946 30.15000000000076 0  202.3999999999945 30.27500000000076 0  201.2444444444438 31.32222222222468 0  200.9888888888895 32.24444444
[...]
<PointData  Vectors="f_12"> 
<DataArray  type="Float64"  Name="f_12"  NumberOfComponents="3" format="ascii">7.0609399424708041e-01 7.6894863036196248e-01 2.4467670664839034e-01  7.4807845471420398e-01 6.1680886204662511e-01 5.4375139944473805e-01  7.0290099570038234e-01 3.3140975907237091e-01 7.9743254467627256e-01  6.4997141210625198e-01 2.3331876028989620e-01 7.2492726033714505e-01  5.0993738981188153e-01 1.8100819369035767e-01 1.9828320204021443e-01  5.2493977259625890e-01 3.1897039684693584e-01 1.5558687587172118e-01  5.2264002595734815e-01 3.4597405588793306e-01 1.2563458501689512e-01  6.0066411737291470e-01 5.4248576756661770e-01 2.3379993533676674e-01  6.2762740473945589e-01 6.4215257261232916e-01 2.1289825501364421e-01  6.0665606421758045e-01 6.0865475985266726e-01 1.8164915569946005e-01  5.1637079223309923e-01 3.3657269767989184e-01 1.0658493627123462e-01  4.9217502250822859e-01 2.3306326092494195e-01 9.1690871807923902e-02  4.8330892858771674e-01 1.8371292078153650e-01 9.0710769386493445e-02  5.5300686309413893e-01 4.8190271686088559e-01 1.2146213520258281e-01  6.5409243518974025e-01 6.5330263987551940e-01 2.7327847201090338e-01  6.9380601630469019e-01 4.8526903181578640e-01 6.0492836838142261e-01  6.5712788858284521e-01 3.6611044139515975e-01 6.3072887238834419e-01  5.9070586887867416e-01 1.8933853335279088e-01 5.5044683650673709e-01  7.6044363070492516e-01 5.8263485441617247e-01 6.1121163214497898e-01  7.5332069093739684e-01 6.2655358913840598e-01 5.3827546371451729e-01  7.5808438223465768e-01 6.2392602245791107e-01 5.4941318999990252e-01  7.6375277857294466e-01 6.7248160271152380e-01 4.8701115076621526e-01  6.7543181652773276e-01 7.1390186970771685e-01 2.4986397048165895e-01  5.7484384678862455e-01 5.9441371680899502e-01 9.3396644341071478e-02  5.7956289252775028e-01 6.0712394132476066e-01 9.6267681454368717e-02  5.7416066071404404e-01 5.9238647732614047e-01 9.3121953395732759e-02  5.7425931297461397e-01 5.9263538050684850e-01 9.3199838720532197e-02  5.7415012616142980e-01 5.9218362391129320e-01 9.3266430270273606e-02  5.7415076193576398e-01 5.9218585716682715e-01 9.3266381903549647e-02  5.7426014694444771e-01 5.9257124627081192e-01 9.3257229268198794e-02  5.7456051518933182e-01 5.9328818145463802e-01 9.3526478227566809e-02  5.7523122129288518e-01 5.9515244675413115e-01 9.3892994963893736e-02  5.7578312676702492e-01 5.9669763045571145e-01 9.4179920948270351e-02  5.7591128862756136e-01 5.9705986753815743e-01 9.4242681952195706e-02  5.7591208132661587e-01 5.9706274689485128e-01 9.4242493866398755e-02  5.7526633433682295e-01 5.9525724262965585e-01 9.3906019227121135e-02  5.7450012486321567e-01 5.9318534298743042e-01 9.3435146840161451e-02  5.8069982044395108e-01 6.1003085661393786e-01 9.7067054906844766e-02  5.9903793939978800e-01 6.4943861878030040e-01 1.1395782540114961e-01  6.0973261004115420e-01 6.7078654073078792e-01 1.2393530788407087e-01  6.8740375830447498e-01 7.2870627099475338e-01 2.6291150794239360e-01  6.8592895449852476e-01 7.2189045908485794e-01 2.6847788886490814e-01  6.3790802059583829e-01 7.0170931859705910e-01 1.6865571679676022e-01  6.5537788391357554e-01 7.0900133564308088e-01 2.0631931371650941e-01  7.0179462737208786e-01 5.9948290436389140e-01 4.7581934868311809e-01  6.1440043073466943e-01 2.7816622804355701e-01 5.5963096202517382e-01  5.4980701080284999e-01 2.9808339830400910e-01 2.7833256818664509e-01  5.6434933994659375e-01 3.4904634795052975e-01 2.9236754196988668e-01  5.9465013651767173e-01 5.1048891208272185e-01 2.5081081764702445e-01  5.7957321698808595e-01 5.5857871776585699e-01 1.4534792471666116e-01  5.5190554963581562e-01 4.9044955572756094e-01 1.1124618864177219e-01  5.1718121903451386e-01 3.6606896248586762e-01 8.9123823094013857e-02  5.0127230524685440e-01 2.9168230311581045e-01 8.5565877621687311e-02  4.9196728152409375e-01 2.4400735794251827e-01 8.4318794829727872e-02  4.8779099139011406e-01 2.1925559898593019e-01 8.5189911548261069e-02  4.8440864389960575e-01 1.9626236157094890e-01 8.7275988931776877e-02  4.8867169220919043e-01 2.0982420383096245e-01 9.3817522973833875e-02  4.8504866839595095e-01 1.4045954255782461e-01 1.2145748153872837e-01  4.8479014929322400e-01 1.2590540853533622e-01 1.2865638620368844e-01  4.8579597291336074e-01 1.1181388821538504e-01 1.4015490237506192e-01  4.8416828194162637e-01 1.3507550908767296e-01 1.2134609603280355e-01  4.8390643063532207e-01 1.4271656251245698e-01 1.1613555564801283e-01  4.8531263515517070e-01 1.5716701541677680e-01 1.1293448126534296e-01  4.9053254973147853e-01 2.0530419711862727e-01 1.0294794529764453e-01  4.9785598742344683e-01 2.6304946506091353e-01 9.2671557013631875e-02  5.2316182129450473e-01 3.7158411049480811e-01 1.0705588534215085e-01  5.2251536690841327e-01 3.4485480441369615e-01 1.2574884145979690e-01  5.1859502869763419e-01 3.2134654622658504e-01 1.2913536977332435e-01  5.1610894469660351e-01 3.0195801522680821e-01 1.3435976902252600e-01  5.1217483917744511e-01 2.6072203304406455e-01 1.5003053571793754e-01  5.1162749898480897e-01 2.7018129201902930e-01 1.4083715473248221e-01  5.1175327322538444e-01 1.9694499943427507e-01 1.9482283033933828e-01  6.2115241134366384e-01 1.8130406971864599e-01 6.6860191321012397e-01  6.5314879093533385e-01 2.0286552661483229e-01 7.7334099772653042e-01  5.3477422495858751e-01 1.8866046992999938e-01 2.9872097059545705e-01  6.8274643468815521e-01 3.3315468103456053e-01 7.3835180013078672e-01  7.2242479605982757e-01 5.7012105499530563e-01 5.5674276176994686e-01  7.2704336768929456e-01 6.6264883312131706e-01 4.4076857630994887e-01  7.1234005421422320e-01 7.5484317287046698e-01 2.7755090394766624e-01  7.0905293805707970e-01 7.6465393184187136e-01 2.5672538794862765e-01  7.0645656866015138e-01 7.6834325056595276e-01 2.4627091869467091e-01  7.0726513381807288e-01 7.6711262364282362e-01 2.4965011634485140e-01  7.0821891790366565e-01 7.6580624886603732e-01 2.5341963594684402e-01  7.1101237290092811e-01 7.6137020998418359e-01 2.6532450513998251e-01  7.1438898887953473e-01 7.5527149500207369e-01 2.8076397341120585e-01  7.1854109203305239e-01 7.4706421935983380e-01 3.0074009478817276e-01  7.2309282211875181e-01 7.3695882639620691e-01 3.2419484766628648e-01  7.2779213556389966e-01 7.2499919177742167e-01 3.5056072311980563e-01  7.3239363715084937e-01 7.1143936607130809e-01 3.7897220092703204e-01  7.3671767802507848e-01 6.9597227294405883e-01 4.0952795278419185e-01  7.4059622819410298e-01 6.7885708984378512e-01 4.4150096496019831e-01  7.4387550901836308e-01 6.6029126655989157e-01 4.7427078008296852e-01  7.4639451311606386e-01 6.3965038129790042e-01 5.0838041963144665e-01  7.4884074359892216e-01 5.9440086312547724e-01 5.7641273688870232e-01  7.4871090755900094e-01 5.7150261923981116e-01 6.0764053931179285e-01  7.4755898007829757e-01 5.4716128477097903e-01 6.3834267444858106e-01  7.4535967663800995e-01 5.2143287055436160e-01 6.6817890894020016e-01  7.4210876362995615e-01 4.9462705334107870e-01 6.9644192250018144e-01  7.3785773754601547e-01 4.6713971339891391e-01 7.2246834585940134e-01  7.3255459052486049e-01 4.3906953995369830e-01 7.4570217827431373e-01  7.2637235271020395e-01 4.1122814544998781e-01 7.6526662711454896e-01  7.1961603288548814e-01 3.8473938097810950e-01 7.8033208614014982e-01  7.1272883599311065e-01 3.6084268891097593e-01 7.9058545400689706e-01  7.0656375212509215e-01 3.4168909506579503e-01 7.9602140839652413e-01  6.9821614312118851e-01 3.2093560404325078e-01 7.9498055346534791e-01  6.8785669593239940e-01 2.9945402787177322e-01 7.8605810696880607e-01  6.7247292620069410e-01 2.7057761535285135e-01 7.6595971772072680e-01  6.2294411125503113e-01 1.9517911766565410e-01 6.6051366496808039e-01  6.0121340721731187e-01 1.7039623101185530e-01 5.9643152671774191e-01  5.8264786426448589e-01 1.5397597466927482e-01 5.3299467731110106e-01  5.6681730670527941e-01 1.4375278407907205e-01 4.7314001791357768e-01  5.5348602014961235e-01 1.3827736142523639e-01 4.1893445820885361e-01  5.4240510783606122e-01 1.3648023292609412e-01 3.7129069639209911e-01  5.3333162340646068e-01 1.3760391127296401e-01 3.3032867023401868e-01  5.2601177840806113e-01 1.4108916148719003e-01 2.9560116580137635e-01  5.2027137651295974e-01 1.4655361801030978e-01 2.6666971974182913e-01  5.1593293429612375e-01 1.5377109361985886e-01 2.4285131367823215e-01  5.1283100786100355e-01 1.6231590456329925e-01 2.2360791211400452e-01  5.1085532841414305e-01 1.7181932005676134e-01 2.0858903028073125e-01  5.0995761135053030e-01 1.9167241233359733e-01 1.9082599346459733e-01  5.1066530560162671e-01 2.0569402121141381e-01 1.8373404067306623e-01  5.1203139602178993e-01 2.2200626374259289e-01 1.7752668587256529e-01  5.1401941627935555e-01 2.4005257899955534e-01 1.7235651745916217e-01  5.1647991534553028e-01 2.5923059846849644e-01 1.6797624193224944e-01  5.1921662628539911e-01 2.7889331615715141e-01 1.6402736234095144e-01  5.2208794671659320e-01 2.9872209956270496e-01 1.6016677876226373e-01  5.2630109330755892e-01 3.3335530480399206e-01 1.4958349261716192e-01  5.2680504757162905e-01 3.4229835753395949e-01 1.4443969203610563e-01  5.2648651273784675e-01 3.4694750095865207e-01 1.3951191804738394e-01  5.2575804860621778e-01 3.4896508813888466e-01 1.3511274447544735e-01  5.2476652831127857e-01 3.4898991064324214e-01 1.3131178145592426e-01  5.2375373094895672e-01 3.4791981598731964e-01 1.2831277800661223e-01  5.2295434732084278e-01 3.4660233461499296e-01 1.2632681159989101e-01  5.2314955228381088e-01 3.4721156639183298e-01 1.2657901811875438e-01  5.2495209638363360e-01 3.5173863506037684e-01 1.2978920271698643e-01  5.2825187756601721e-01 3.6015853099194572e-01 1.3551214020007607e-01  5.3314214455757991e-01 3.7260909949234350e-01 1.4389283242690173e-01  5.3970114232649136e-01 3.8918745101631924e-01 1.5495547772748741e-01  5.4789587534426543e-01 4.0967816761010262e-01 1.6844183310907415e-01  5.5766447308955613e-01 4.3382966418293717e-01 1.8384343176657258e-01  5.6900582318391291e-01 4.6175500079813153e-01 2.0034623800309520e-01  5.8234126534755393e-01 4.9497747888738652e-01 2.1698958764098106e-01  6.1604928254513236e-01 5.8655744718869007e-01 2.3931204118004026e-01  6.2359410879023502e-01 6.1113787780826212e-01 2.3677909009468884e-01  6.2748855351621091e-01 6.2716524289432474e-01 2.3071356127008544e-01  6.2884767639018035e-01 6.3670507917800723e-01 2.2359973212502385e-01  6.2861159262265498e-01 6.4137320304168965e-01 2.1709077643380553e-01  6.2623604418531176e-01 6.4071837085979899e-01 2.1006408301270191e-01  6.2279597428945044e-01 6.3625836138473268e-01 2.0404109504268028e-01  6.1692896262476393e-01 6.2711448302887796e-01 1.9521012451557188e-01  5.9195024103950811e-01 5.7772509379770054e-01 1.6511009416575659e-01  5.8000835124523387e-01 5.4872500784448575e-01 1.5355315558784149e-01  5.6879440660564162e-01 5.1821697546651668e-01 1.4386604549091003e-01  5.5799229745039125e-01 4.8592712668317162e-01 1.3531927759182147e-01  5.4754532749500762e-01 4.5204586872752367e-01 1.2760951276211960e-01  5.3739735215858020e-01 4.1674138782375747e-01 1.2050533892603410e-01  5.2735433537767462e-01 3.7957495314567047e-01 1.1374552299166060e-01  5.0704088192595453e-01 2.9829508702321705e-01 1.0065496389327824e-01  5.0096347018284193e-01 2.7242686197636368e-01 9.6847734052713796e-02  4.9663294319906004e-01 2.5341442329245895e-01 9.4203023859817117e-02  4.9368223629660973e-01 2.4008294831986338e-01 9.2488747226799312e-02  4.9114789278585030e-01 2.2794082562102569e-01 9.1310896752835657e-02  4.8971186388990751e-01 2.2047849059862218e-01 9.0923662247720638e-02  4.8821982724849255e-01 2.1243358163161868e-01 9.0652710146291865e-02  4.8681198629274874e-01 2.0459135381553614e-01 9.0504184151082717e-02  4.8560265192838686e-01 1.9763950373763703e-01 9.0467408978693570e-02  4.8462558475212991e-01 1.9186770581378090e-01 9.0500909960517156e-02  4.8390319709208185e-01 1.8750046137884485e-01 9.0566224535651024e-02  4.8345030542373058e-01 1.8469672034459680e-01 9.0635666542195611e-02  4.8326001932625245e-01 1.8347140954956176e-01 9.0687396513446969e-02  4.8365642730324976e-01 1.8577998145726682e-01 9.0699450579856677e-02  4.8437219137452353e-01 1.9003885844296281e-01 9.0668552585901618e-02  4.8547031563266946e-01 1.9649412921820897e-01 9.0642585737745765e-02  4.8700298447438084e-01 2.0531506109413211e-01 9.0666084704282446e-02  4.8899665926086233e-01 2.1649903683133789e-01 9.0786126266331632e-02  4.9149397265081540e-01 2.3009774858109588e-01 9.1060056130802244e-02  4.9454319992336004e-01 2.4614955170032174e-01 9.1558294188277836e-02  4.9818567869800423e-01 2.6462921415580953e-01 9.2354405089147121e-02  5.0244784662234809e-01 2.8541552792003078e-01 9.3521862965493904e-02  5.0738921917569990e-01 3.0849497510111307e-01 9.5159577316777905e-02  5.1303592350320315e-01 3.3368011615347121e-01 9.7357929329561235e-02  5.1939992290357495e-01 3.6068739801015315e-01 1.0021235893189707e-01  5.2656510668127232e-01 3.8945796161610508e-01 1.0388247719470155e-01  5.3450076032589444e-01 4.1937887550397074e-01 1.0849970275631438e-01  5.4330221757199038e-01 4.5033778923935708e-01 1.1428177951468425e-01  5.6287271077360124e-01 5.1125367382381648e-01 1.2969487814442743e-01  5.7329853449324730e-01 5.3929437478453091e-01 1.3951003316452643e-01  5.8431458346888698e-01 5.6572744991490986e-01 1.5120723994359342e-01  5.9603307213682255e-01 5.9002720169087397e-01 1.6544104219232850e-01  6.0835132294708250e-01 6.1150220090009832e-01 1.8257215811189911e-01  6.2148290608197432e-01 6.2965355518761124e-01 2.0378064731317261e-01  6.3598484331489069e-01 6.4378702793797815e-01 2.3153740497262051e-01  6.7143735760334189e-01 6.5281615024041029e-01 3.2322854929160211e-01  6.8314101755858869e-01 6.4442623246932307e-01 3.6648388666712006e-01  6.9161953635334872e-01 6.3004794167006484e-01 4.0846591521325631e-01  6.9738282969071064e-01 6.1067924372027904e-01 4.4978815649924880e-01  7.0062386273680333e-01 5.8726098929932580e-01 4.8985957510629774e-01  7.0146585596727540e-01 5.6084353479345439e-01 5.2745075058673696e-01  7.0015502613018732e-01 5.3296296493880513e-01 5.6083117445662767e-01  6.9719998101630920e-01 5.0604221611795119e-01 5.8782910494089458e-01  6.8962739501727932e-01 4.6756385627809560e-01 6.1496891574977020e-01  6.8229393146123096e-01 4.4081154099675790e-01 6.2569116390796431e-01  6.7200846968898165e-01 4.0816007716375846e-01 6.3208260433126406e-01  6.4008442625632467e-01 3.2222108047466835e-01 6.1884054187565007e-01  6.2601741901055130e-01 2.8898424676984397e-01 6.0142827505193597e-01  6.1386418889070138e-01 2.6202915478789451e-01 5.8125003721020219e-01  6.0366355560166518e-01 2.3988884298137719e-01 5.6151241138867880e-01  5.9573677023141491e-01 2.2177477598242459e-01 5.4545611041670883e-01  5.9045606630468073e-01 2.0753264341938094e-01 5.3569765660091617e-01  5.8830064654844128e-01 1.9672601003534892e-01 5.3530442067719142e-01  5.9910152131669003e-01 1.8947584656514441e-01 5.8365065253785087e-01  6.1000388146532747e-01 1.9676694481618437e-01 6.2026054986897317e-01  6.2335698597848788e-01 2.1058940020531239e-01 6.5912495558924178e-01  6.3874539999366386e-01 2.3122830480888351e-01 6.9662093396421909e-01  6.5555169003747549e-01 2.5886236380413702e-01 7.2840849919185080e-01  6.7301015201108905e-01 2.9317248090870424e-01 7.5043728316276070e-01  6.9028174465648662e-01 3.3316849996600922e-01 7.5976626193875807e-01  7.0653940930812620e-01 3.7701978751156612e-01 7.5542161876430425e-01  7.2111558219020289e-01 4.2220936867834197e-01 7.3891810272855585e-01  7.3352919292429664e-01 4.6590988412504997e-01 7.1360213234842129e-01  7.4356298293996559e-01 5.0541216100961461e-01 6.8411842125889011e-01  7.5115031121871467e-01 5.3827857921178890e-01 6.5537031279038316e-01  7.5638057311657803e-01 5.6268843211148301e-01 6.3177605781859847e-01  7.5941724197908422e-01 5.7760464383361609e-01 6.1647680846874886e-01  7.6019983289660875e-01 5.8258487162585815e-01 6.1090226951116000e-01  7.5980719102738870e-01 5.8417501191448806e-01 6.0811396737227397e-01  7.5929892907327423e-01 5.8787395370828310e-01 6.0222542028868975e-01  7.5867875019181807e-01 5.9396394895056415e-01 5.9280285451253911e-01  7.5809217389982886e-01 6.0409100229331880e-01 5.7766234664034488e-01  7.5731882513790427e-01 6.3265893584389243e-01 5.3576993116600080e-01  7.5984567755371879e-01 6.4340462097592532e-01 5.2403706861443167e-01  7.6160148498694014e-01 6.5510214577081227e-01 5.0956365887160249e-01  7.6275797022093472e-01 6.6406486483131355e-01 4.9805698290920541e-01  7.6343935497228843e-01 6.6976316543555003e-01 4.9060250489220802e-01  7.6337583281984889e-01 6.6921530871690404e-01 4.9132512189894589e-01  7.6245606938567068e-01 6.6152561802447218e-01 5.0137020676530597e-01  7.6084852021952931e-01 6.4856964035699138e-01 5.1800091248582059e-01  7.4884813721549748e-01 6.3399344645740696e-01 5.2035655343133191e-01  7.4487345521168147e-01 6.4473989838288626e-01 4.9817366401172014e-01  7.4044876895000389e-01 6.5671192471809470e-01 4.7310120398743999e-01  7.3525681996643932e-01 6.6887516502724209e-01 4.4600278252835091e-01  7.2910255093170240e-01 6.8057567894830717e-01 4.1735244093457424e-01  7.2186910838831830e-01 6.9124057101858349e-01 3.8759332371329713e-01  7.1339958720904184e-01 7.0040737576777190e-01 3.5683532760142145e-01  7.0345724591966363e-01 7.0768231604373033e-01 3.2480274191099306e-01  6.9151646154584734e-01 7.1245805118698535e-01 2.9070393085254459e-01  6.5857618262547468e-01 7.1054219383797734e-01 2.1155963368714198e-01  6.4530490361346005e-01 7.0385203140312713e-01 1.8491824920329619e-01  6.3361776695834038e-01 6.9465140349629562e-01 1.6407679387728141e-01  6.2328285917369175e-01 6.8378842074896840e-01 1.4759604217720715e-01  6.1418074735769879e-01 6.7206742698599853e-01 1.3448680554154346e-01  6.0629789572425186e-01 6.6022718155696269e-01 1.2415385018738430e-01  5.9958336348514385e-01 6.4886037434585575e-01 1.1608171118577364e-01  5.9396865160975498e-01 6.3840778478179416e-01 1.0984978962186541e-01  5.8936487802555382e-01 6.2915699602594155e-01 1.0510383576095246e-01  5.8569041136593181e-01 6.2129907751148872e-01 1.0156905959657152e-01  5.8285030836815344e-01 6.1491236045044861e-01 9.9006861717774633e-02  5.8077562607050581e-01 6.1005506864776871e-01 9.7243429917080640e-02  5.7863038034824688e-01 6.0477527655660357e-01 9.5581490638306302e-02  5.7760536228070392e-01 6.0211138703663258e-01 9.4885093427222997e-02  5.7666167444365801e-01 5.9957664168083447e-01 9.4303873839357566e-02  5.7580294861120251e-01 5.9718523808181301e-01 9.3838790882236525e-02  5.7439017588601504e-01 5.9307154977282295e-01 9.3211414929300823e-02  5.7424064717706302e-01 5.9262600786878450e-01 9.3152580301372329e-02  5.7418053741193065e-01 5.9244614178422395e-01 9.3129456498498048e-02  5.7417934208069066e-01 5.9244254248826411e-01 9.3129014655755640e-02  5.7422126233361259e-01 5.9256725124229337e-01 9.3145791487953114e-02  5.7426860792887235e-01 5.9270404319024050e-01 9.3168204653108766e-02  5.7428483278071019e-01 5.9273888078785142e-01 9.3186255952926678e-02  5.7421568351744234e-01 5.9246690693272919e-01 9.3215813622793284e-02  5.7418631248378793e-01 5.9234453064919623e-01 9.3234427510646992e-02  5.7416578867955070e-01 5.9225548227352109e-01 9.3250607980841255e-02  5.7415398450644795e-01 5.9220186380278084e-01 9.3262056520517014e-02  5.7415070067398744e-01 5.9218589880623229e-01 9.3266163116094564e-02  5.7415438524465057e-01 5.9220146948524155e-01 9.3263593964705141e-02  5.7416619326985285e-01 5.9224947998543864e-01 9.3257018546439877e-02  5.7419417082922586e-01 5.9235178726983229e-01 9.3251426594401360e-02  5.7432635786377761e-01 5.9273009787848252e-01 9.3315776748854468e-02  5.7437908278962324e-01 5.9284808598225658e-01 9.3369811201793024e-02  5.7443411814053069e-01 5.9297606223574040e-01 9.3422117625496445e-02  5.7448819853511646e-01 5.9310687286136210e-01 9.3469155095186038e-02  5.7453404997069346e-01 5.9322088081918523e-01 9.3506333232818817e-02  5.7458507967093764e-01 5.9335375940547197e-01 9.3542429469253133e-02  5.7462624518730987e-01 5.9346566418890523e-01 9.3567368501801459e-02  5.7467889300