<?xml version="1.0"?>
<VTKFile type="UnstructuredGrid"  version="0.1"  >
<UnstructuredGrid>
<Piece  NumberOfPoints="7288" NumberOfCells="14083">
<Points>
<DataArray  type="Float64"  NumberOfComponents="3"  format="ascii">239.8 188 0  250.2 180 0  258.2 172.4 0  257 169.4 0  259.9 157.4 0  258.7 150.3 0  261 143.5 0  251.7 144.4 0  250 138.7 0  247 138.1 0  245.2 130.8 0  247.3 126.4 0  242.7 118.6 0  231.2 107.7 0  226 102.4 0  226.5 93.90000000000001 0  224.5 91.19999999999999 0  224.5 84.09999999999999 0  234.5 73.80000000000001 0  228.4 68.90000000000001 0  230 70 0  233.4 68 0  222.7 61.5 0  220.6 45.5 0  223.4 49.40000000000001 0  224 47 0  221.8 43.09999999999999 0  221 38.40000000000001 0  219.5 38.5 0  219.4 41.69999999999999 0  217.1 36.90000000000001 0  209.7 36 0  209.5 31.69999999999999 0  205.1 29.90000000000001 0  201.5 30.40000000000001 0  199.2 38.69999999999999 0  201.8 41.40000000000001 0  194.8 53.80000000000001 0  196.1 57.69999999999999 0  193 59 0  191.4 66.09999999999999 0  193.5 66.5 0  194.1 64.40000000000001 0  195.6 64.69999999999999 0  195.4 72.40000000000001 0  199.5 77.30000000000001 0  197.7 86.90000000000001 0  200.6 87.5 0  201.5 91 0  198 94.80000000000001 0  198.6 100 0  197.3 105.4 0  198 109.5 0  197 112.7 0  198.3 116.1 0  201.3 122 0  207.2 121 0  208.1 126.7 0  205.6 127.9 0  209.1 134.9 0  210.9 144.4 0  210.1 147.9 0  213 148.4 0  215.4 149.3 0  215.1 152.8 0  219.9 159.7 0  220.3 163.2 0  218.7 164.9 0  219.9 166.7 0  221.9 169.7 0  220 170.3 0  224.9 174.7 0  229.8 177.4 0  229.7 181 0  228 172.9 0  239 178 0  240.4 180 0  239 181.5 0  241.2 185.9 0  242.95 187.99 0  240.5875 187.9975 0  241.375 187.995 0  242.1625 187.9925 0  243.6090909090879 187.2636363636397 0  244.2681818181765 186.5372727272785 0  244.9272727272692 185.810909090913 0  245.5863636363531 185.0845454545571 0  246.245454545445 184.3581818181923 0  246.9045454545351 183.6318181818295 0  247.5636363636303 182.9054545454612 0  248.2227272727197 182.1790909090992 0  248.8818181818179 181.4527272727275 0  249.5409090909066 180.7263636363664 0  250.8666666666961 179.3666666666387 0  251.5333333334033 178.7333333332668 0  252.2000000000994 178.0999999999055 0  252.8666666668011 177.466666666539 0  253.5333333335083 176.8333333331671 0  254.2000000002044 176.1999999998058 0  254.8666666669005 175.5666666664445 0  255.5333333336077 174.9333333330727 0  256.2000000002685 174.2999999997449 0  256.8666666668457 173.6666666664966 0  257.5333333334283 173.033333333243 0  257.9000000000077 171.6500000000191 0  257.6000000000015 170.9000000000038 0  257.2999999999954 170.1499999999885 0  257.2230769230778 168.4769230769195 0  257.4461538461543 167.5538461538442 0  257.6692307692309 166.6307692307688 0  257.8923076923074 165.7076923076935 0  258.115384615384 164.7846153846181 0  258.3384615384605 163.8615384615427 0  258.5615384615395 162.9384615384572 0  258.784615384616 162.0153846153819 0  259.0076923076926 161.0923076923065 0  259.2307692307691 160.1692307692311 0  259.4538461538457 159.2461538461558 0  259.6769230769222 158.3230769230804 0  259.750000000001 156.512500000006 0  259.6000000000014 155.6250000000082 0  259.4500000000029 154.7375000000176 0  259.3000000000018 153.8500000000108 0  259.1500000000007 152.962500000004 0  259.0000000000004 152.0750000000026 0  258.849999999999 151.187499999994 0  258.9875000000052 149.4499999999846 0  259.275000000002 148.5999999999941 0  259.5624999999954 147.7500000000135 0  259.849999999995 146.900000000015 0  260.1374999999945 146.0500000000164 0  260.4249999999913 145.2000000000259 0  260.7124999999948 144.3500000000154 0  260.0700000000398 143.5899999999961 0  259.1400000000573 143.6799999999944 0  258.2100000000351 143.7699999999966 0  257.2800000000262 143.8599999999975 0  256.350000000011 143.9499999999989 0  255.4199999999881 144.0400000000011 0  254.4899999999726 144.1300000000026 0  253.5599999999944 144.2200000000005 0  252.6300000000009 144.3099999999999 0  251.4166666666658 143.4499999999971 0  251.1333333333388 142.5000000000182 0  250.8500000000015 141.5500000000051 0  250.5666666666612 140.5999999999818 0  250.2833333333342 139.6500000000029 0  249.2500000000005 138.5500000000001 0  248.5000000000011 138.4000000000002 0  247.7499999999995 138.2499999999999 0  246.7750000000005 137.1875000000023 0  246.5500000000021 136.2750000000085 0  246.3250000000036 135.3625000000147 0  246.1000000000042 134.450000000017 0  245.8750000000022 133.5375000000088 0  245.650000000003 132.6250000000124 0  245.4250000000046 131.7125000000187 0  245.619999999996 129.9200000000084 0  246.0399999999992 129.0400000000017 0  246.4599999999987 128.1600000000028 0  246.8800000000001 127.2799999999997 0  246.8399999999988 125.6199999999979 0  246.3799999999984 124.8399999999973 0  245.9199999999991 124.0599999999985 0  245.4600000000036 123.2800000000062 0  245.0000000000049 122.5000000000082 0  244.5400000000036 121.7200000000062 0  244.0800000000033 120.9400000000056 0  243.6200000000016 120.1600000000027 0  243.1600000000012 119.3800000000021 0  241.9812499999996 117.9187499999997 0  241.2625000000007 117.2375000000007 0  240.5437500000017 116.5562500000017 0  239.8250000000041 115.875000000004 0  239.1062500000066 115.1937500000063 0  238.3875000000076 114.5125000000072 0  237.6687500000087 113.8312500000082 0  236.9500000000083 113.1500000000079 0  236.231250000008 112.4687500000076 0  235.512500000009 111.7875000000085 0  234.7937500000045 111.1062500000043 0  234.0750000000042 110.4250000000039 0  233.3562500000066 109.7437500000062 0  232.6375000000021 109.062500000002 0  231.9187500000031 108.381250000003 0  230.5500000000004 107.0375000000004 0  229.9000000000021 106.3750000000021 0  229.2500000000038 105.7125000000039 0  228.6000000000041 105.0500000000042 0  227.9500000000018 104.3875000000018 0  227.2999999999952 103.7249999999951 0  226.6500000000024 103.0625000000024 0  226.0555555555555 101.4555555555556 0  226.1111111111111 100.5111111111111 0  226.1666666666667 99.56666666666668 0  226.2222222222222 98.62222222222223 0  226.2777777777778 97.67777777777778 0  226.3333333333333 96.73333333333335 0  226.3888888888889 95.78888888888889 0  226.4444444444445 94.84444444444446 0  226 93.22499999999999 0  225.5000000000026 92.55000000000358 0  225.0000000000026 91.87500000000358 0  224.5 90.31250000000068 0  224.5 89.4250000000097 0  224.5 88.53750000001317 0  224.5 87.65000000001388 0  224.5 86.76250000001457 0  224.5 85.87500000001248 0  224.5 84.9874999999993 0  225.1666666666659 83.41333333333409 0  225.8333333333319 82.72666666666818 0  226.4999999999978 82.04000000000228 0  227.1666666666649 81.35333333333514 0  227.8333333333301 80.66666666667 0  228.4999999999942 79.980000000006 0  229.1666666666601 79.2933333333401 0  229.8333333333316 78.60666666666847 0  230.4999999999975 77.92000000000257 0  231.1666666666644 77.23333333333572 0  231.8333333333295 76.54666666667057 0  232.4999999999972 75.86000000000287 0  233.1666666666681 75.17333333333181 0  233.8333333333368 74.48666666666306 0  233.7499999999995 73.16666666666629 0  233.0000000000018 72.53333333333488 0  232.2500000000014 71.90000000000116 0  231.5000000000009 71.26666666666743 0  230.7500000000005 70.63333333333372 0  229.233333333333 68.75000000000006 0  230.0666666666665 68.60000000000004 0  230.8999999999995 68.45000000000009 0  231.7333333333325 68.30000000000015 0  232.566666666667 68.14999999999995 0  232.5499999999897 68.50000000000607 0  231.7 69 0  230.8500000000103 69.49999999999393 0  227.8300000000008 68.16000000000106 0  227.2600000000064 67.42000000000837 0  226.6900000000077 66.68000000001001 0  226.1200000000024 65.94000000000314 0  225.5500000000108 65.20000000001409 0  224.9800000000098 64.46000000001268 0  224.4100000000007 63.72000000000098 0  223.8399999999971 62.97999999999621 0  223.2699999999993 62.23999999999915 0  222.753846153846 60.56923076923239 0  222.8076923076921 59.63846153846478 0  222.8615384615381 58.70769230769827 0  222.9153846153842 57.77692307693071 0  222.9692307692302 56.84615384616315 0  223.0230769230761 55.91538461539836 0  223.0769230769224 54.98461538462665 0  223.1307692307688 54.05384615385345 0  223.184615384615 53.12307692308312 0  223.2384615384611 52.19230769231556 0  223.2923076923071 51.26153846154906 0  223.3461538461533 50.33076923077847 0  222.8400000000024 48.62000000000327 0  222.2800000000047 47.84000000000661 0  221.7200000000005 47.06000000000071 0  221.1600000000003 46.28000000000039 0  221.4500000000116 45.87500000000512 0  222.3 46.25 0  223.1499999999884 46.62499999999488 0  223.5600000000055 46.22000000000981 0  223.1199999999987 45.43999999999767 0  222.6800000000061 44.66000000001075 0  222.2399999999969 43.8799999999944 0  221.6400000000004 42.16000000000253 0  221.4800000000009 41.22000000000548 0  221.3200000000014 40.28000000000801 0  221.1600000000009 39.34000000000556 0  220.25 38.45 0  219.4749999999999 39.30000000000165 0  219.45 40.09999999999999 0  219.425 40.90000000000112 0  219.0166666666641 40.89999999999463 0  218.6333333333375 40.10000000000875 0  218.2500000000016 39.30000000000339 0  217.8666666666635 38.49999999999351 0  217.483333333337 37.70000000000762 0  216.1750000000165 36.78750000000201 0  215.2500000000275 36.67500000000335 0  214.3250000000385 36.56250000000469 0  213.4000000000277 36.45000000000337 0  212.4750000000059 36.33750000000072 0  211.5499999999838 36.22499999999803 0  210.6249999999835 36.11249999999799 0  209.6600000000001 35.14000000000318 0  209.6200000000001 34.28000000000268 0  209.5800000000001 33.42000000000284 0  209.5399999999998 32.55999999999681 0  208.6200000000117 31.34000000000476 0  207.7400000000138 30.98000000000564 0  206.8600000000162 30.62000000000662 0  205.9800000000174 30.26000000000711 0  204.2000000000054 30.02499999999925 0  203.2999999999946 30.15000000000076 0  202.3999999999945 30.27500000000076 0  201.2444444444438 31.32222222222468 0  200.9888888888895 32.24444444
[...]
<PointData  Vectors="f_12"> 
<DataArray  type="Float64"  Name="f_12"  NumberOfComponents="3" format="ascii">6.9068831811099829e-01 7.8758626104255636e-01 1.8438780615301936e-01  6.9487812234169488e-01 7.8971022340487118e-01 1.8990703307207385e-01  7.0025051382518499e-01 7.9205490415707402e-01 1.9720885333482660e-01  7.0202411733733483e-01 7.9267259434674375e-01 1.9975318036911033e-01  7.1279565453259575e-01 7.9563637161043466e-01 2.1561873607420606e-01  7.1830163537649183e-01 7.9644194304307703e-01 2.2425114634851284e-01  7.2012624040402884e-01 7.9671272016448558e-01 2.2703735828699609e-01  7.2706428365333553e-01 7.9538634069292835e-01 2.4078109001261161e-01  7.3949484318524883e-01 7.9001053356892226e-01 2.6904259915699164e-01  7.4764117329071744e-01 7.8159338669563405e-01 2.9415952354517633e-01  7.7883911958717722e-01 7.0940829233500835e-01 4.4799403688759720e-01  7.8637295873900237e-01 6.6209134827174165e-01 5.2851842249945258e-01  7.6852882685093382e-01 4.8668110805979214e-01 7.4342657642000232e-01  6.1722472570937026e-01 1.2651073661090995e-01 6.8431535735159055e-01  5.4746124988954614e-01 8.7098550531733557e-02 4.1562394671010644e-01  5.0155792588193249e-01 1.0128118828733210e-01 2.0900183908694828e-01  4.9571913172994225e-01 1.3147025273324014e-01 1.6780303274143521e-01  5.1145106802030138e-01 3.0773540963201074e-01 1.1044135630353269e-01  5.5037363313129672e-01 4.9484102025274546e-01 1.0290438670360547e-01  6.1493482306458502e-01 6.0146803649546599e-01 2.1644422177781888e-01  5.9399507032484788e-01 5.8263807963841940e-01 1.6816728341505449e-01  5.9476335219943843e-01 5.9625017188469764e-01 1.5816369644928890e-01  6.6387203128502981e-01 3.7092377737774423e-01 6.4691424511995332e-01  5.1766939343138474e-01 2.8085891494187415e-01 1.5697206104180267e-01  5.4557640920595907e-01 2.9073517904823903e-01 2.6621241286955249e-01  5.0963599929834202e-01 2.7589463080763660e-01 1.2877369446919254e-01  5.0760642085669083e-01 2.6454235317651359e-01 1.2910651543454904e-01  4.9820785886236113e-01 2.3968884033476051e-01 1.1074185603958010e-01  4.9824016948531458e-01 2.3974219417547821e-01 1.1082685308809814e-01  5.0375027744156575e-01 2.4928359141085263e-01 1.2508463735234512e-01  4.9683177829505781e-01 2.0691144045982893e-01 1.2734848462760870e-01  5.0967893468491154e-01 1.3744941686262485e-01 2.2452849954804868e-01  5.2322323179489694e-01 9.5648754690743978e-02 3.0930028724013253e-01  5.3191464438396141e-01 8.6493516733863185e-02 3.5397703704448463e-01  5.3392272700817944e-01 8.5193799277878957e-02 3.6390227688015331e-01  5.1509437855005957e-01 1.0713861805690170e-01 2.6803847917004908e-01  5.1549068285254018e-01 1.3775534757593488e-01 2.5157315202726477e-01  6.8374656023492519e-01 3.2795845560795261e-01 7.5300157388543476e-01  7.2119373014458288e-01 5.2233289712017206e-01 6.1849216289714015e-01  7.3081356996696489e-01 6.4721057060800991e-01 4.7069342069738473e-01  6.5565570650374771e-01 7.2527648257453836e-01 1.8906527162623132e-01  6.6036251572627480e-01 7.2341259052136864e-01 2.0290630308758756e-01  7.1301225153200698e-01 6.9706693563076194e-01 3.6204687163600585e-01  6.9847100440449084e-01 7.0511511737314170e-01 3.1795561933141192e-01  6.3314564771443449e-01 6.9331951005821857e-01 1.6682168139364709e-01  5.7522491804782439e-01 5.5043623342873338e-01 1.3488307297064128e-01  5.0381300419138220e-01 2.8859190980275601e-01 9.6904719229374311e-02  5.0112306486619917e-01 2.5724347178716839e-01 1.0815355282538419e-01  4.9576330972138399e-01 1.5796323708508003e-01 1.5204338024518982e-01  5.0232772636498657e-01 1.0133767330947743e-01 2.1240632041471366e-01  5.2437349013608237e-01 8.7455776063344870e-02 3.1419833370628192e-01  5.6414802833762623e-01 9.0106580880100512e-02 4.8761024747194592e-01  6.0405171295409155e-01 1.1306753036919392e-01 6.3908540597220564e-01  6.3567984544897160e-01 1.4017375089640760e-01 7.4158521622552531e-01  6.6090187361690989e-01 1.7081924161053377e-01 8.0418682003797459e-01  6.9271187048176486e-01 2.2089755201739381e-01 8.5816093128248316e-01  6.9974157409208848e-01 2.4474672872896874e-01 8.5721969552479327e-01  7.6021435218097688e-01 4.4288710132846310e-01 7.8198902455852948e-01  7.7194784513639914e-01 4.9504452289822665e-01 7.3833615964348920e-01  7.8155114540094439e-01 6.2758309242273214e-01 5.7296726576675305e-01  7.5748081423240154e-01 7.7052788625093216e-01 3.2568864938455278e-01  7.5178651912727368e-01 7.8198007497567323e-01 2.9990840344924019e-01  7.4945858817064248e-01 7.8377498612523999e-01 2.9368582340325206e-01  7.4149491074966900e-01 7.8942440534582681e-01 2.7291239298955194e-01  7.3156505008175465e-01 7.9492151595678140e-01 2.4895055935228652e-01  7.1726789998945695e-01 7.9624258145920501e-01 2.2270459455096414e-01  7.1112681705640535e-01 7.9542445952654461e-01 2.1287839247844775e-01  7.0941173916038980e-01 7.9511827113600886e-01 2.1018688154064491e-01  7.0843516573543130e-01 7.9489998873606027e-01 2.0869206413897720e-01  7.0667607581983427e-01 7.9445198148656759e-01 2.0605373056479184e-01  7.0706912232597596e-01 7.9457789937880674e-01 2.0661245648162119e-01  7.0415710385072317e-01 7.9367607671083129e-01 2.0241117628034078e-01  6.9900416186370029e-01 7.9170041250331957e-01 1.9527303420791256e-01  6.9827993229478735e-01 7.9142166411533432e-01 1.9424950239739361e-01  7.0290199160560540e-01 7.9317803170121726e-01 2.0071625776609700e-01  6.9644253874107220e-01 7.9045678419570919e-01 1.9197239238645822e-01  6.9365350861715802e-01 7.8909761678367274e-01 1.8829674690850215e-01  6.9248089712173067e-01 7.8851400776556158e-01 1.8674844757356407e-01  6.9103099605881646e-01 7.8776672824609217e-01 1.8483770006951020e-01  6.9083550819987993e-01 7.8766444484479703e-01 1.8458047355522514e-01  6.9070642128858706e-01 7.8759585898626028e-01 1.8441152982614120e-01  6.9074641607679321e-01 7.8761709517467327e-01 1.8446390520407255e-01  6.9079348507237337e-01 7.8764212061438366e-01 1.8452549441777413e-01  6.9094012534423688e-01 7.8771978570331025e-01 1.8471748073528055e-01  6.9112977775586903e-01 7.8781983218936824e-01 1.8496590176133537e-01  6.9138071569364568e-01 7.8795167288276124e-01 1.8529468580295241e-01  6.9168324603288900e-01 7.8810974168921877e-01 1.8569126362983046e-01  6.9203242337799076e-01 7.8829093213333390e-01 1.8614935597821128e-01  6.9242183370759081e-01 7.8849132866459881e-01 1.8666077982159834e-01  6.9285045057336836e-01 7.8870974573912944e-01 1.8722456871502963e-01  6.9331244124623626e-01 7.8894258254551730e-01 1.8783336610106052e-01  6.9380267871549173e-01 7.8918657408740589e-01 1.8848078826582729e-01  6.9432345406736617e-01 7.8944213512509287e-01 1.8917039355211870e-01  6.9540855155290837e-01 7.8996277383508295e-01 1.9061350126121099e-01  6.9593042987992615e-01 7.9020731141977241e-01 1.9131079598389639e-01  6.9645371819970603e-01 7.9044830896960872e-01 1.9201258184146530e-01  6.9697656005257902e-01 7.9068480858163503e-01 1.9271655002374527e-01  6.9749429617160008e-01 7.9091461921237105e-01 1.9341660775834649e-01  6.9800136886481234e-01 7.9113539517700437e-01 1.9410529419111908e-01  6.9849485187927707e-01 7.9134585973721006e-01 1.9477889175090260e-01  6.9896555647964831e-01 7.9154242191088431e-01 1.9542475853926852e-01  6.9940102545681704e-01 7.9172040493703322e-01 1.9602551045713168e-01  6.9978531581109593e-01 7.9187412680413838e-01 1.9655860434055894e-01  7.0008929257709107e-01 7.9199313642309255e-01 1.9698265079965263e-01  7.0040570667442192e-01 7.9211079569586484e-01 1.9743026634973554e-01  7.0074171484492076e-01 7.9222991421317979e-01 1.9791116195864153e-01  7.0124698251921336e-01 7.9240615559340810e-01 1.9863608904529503e-01  7.0304450689744558e-01 7.9301499059473746e-01 2.0122283657467513e-01  7.0396289850470006e-01 7.9331402461642830e-01 2.0254982027763035e-01  7.0486033561569583e-01 7.9359667276656487e-01 2.0385104910148805e-01  7.0574990659545978e-01 7.9386722828163037e-01 2.0514551061988195e-01  7.0663230884035078e-01 7.9412593261252962e-01 2.0643437560349459e-01  7.0750489279649420e-01 7.9437207841040491e-01 2.0771400046805011e-01  7.0836344246834426e-01 7.9460460624569229e-01 2.0897845286710479e-01  7.0920355315081396e-01 7.9482266915485256e-01 2.1022142693791468e-01  7.1001843038829682e-01 7.9502475722178567e-01 2.1143306915905327e-01  7.1080375211083990e-01 7.9521023681335534e-01 2.1260720031446045e-01  7.1154693758213072e-01 7.9537716776322021e-01 2.1372456043749244e-01  7.1223229583121206e-01 7.9552307486882601e-01 2.1476119952269296e-01  7.1333212479747010e-01 7.9573614591003494e-01 2.1644276706732477e-01  7.1396607656770705e-01 7.9584685333603533e-01 2.1742267694164574e-01  7.1464734426057452e-01 7.9595834108183683e-01 2.1848186713809550e-01  7.1535202370026429e-01 7.9606570380593289e-01 2.1958407935532068e-01  7.1606956167348390e-01 7.9616720596311286e-01 2.2071261466857955e-01  7.1679291902963260e-01 7.9626230119617925e-01 2.2185566351712011e-01  7.1752510152611892e-01 7.9635190157311675e-01 2.2301721009811085e-01  7.1893844827549991e-01 7.9652016203844611e-01 2.2525281528729585e-01  7.1938602868472967e-01 7.9657624265561389e-01 2.2595264507884061e-01  7.1969394882381432e-01 7.9661967284447865e-01 2.2642533702965689e-01  7.1990554924418038e-01 7.9665367564357403e-01 2.2674302115365003e-01  7.2003478604727289e-01 7.9667964608051034e-01 2.2692871305726259e-01  7.2010147143884162e-01 7.9669810869784186e-01 2.2701662596043271e-01  7.2012454195764652e-01 7.9670919069933943e-01 2.2703980970901552e-01  7.2013988011596741e-01 7.9670869010670953e-01 2.2706722756212377e-01  7.2020303591613222e-01 7.9669560670709438e-01 2.2719689671063134e-01  7.2034227263206518e-01 7.9667256357173777e-01 2.2747352196793819e-01  7.2057674360290136e-01 7.9663741506718377e-01 2.2793280416416872e-01  7.2093583775495329e-01 7.9658630634815442e-01 2.2862997511085262e-01  7.2144879517361549e-01 7.9651288593264236e-01 2.2962266900350756e-01  7.2215416472421301e-01 7.9640509313095298e-01 2.3099133800087709e-01  7.2312174202692736e-01 7.9624063523881827e-01 2.3288283121725406e-01  7.2452574460677299e-01 7.9596656222984152e-01 2.3566259496256214e-01  7.3028159183832986e-01 7.9448758441033407e-01 2.4746064491760555e-01  7.3270205908862118e-01 7.9364731167426306e-01 2.5269124722289310e-01  7.3488999348257811e-01 7.9270998495985623e-01 2.5764841277417050e-01  7.3684522075549486e-01 7.9170541448750131e-01 2.6229737616203003e-01  7.3847975049437520e-01 7.9072519099117511e-01 2.6637072026052172e-01  7.4016763973820410e-01 7.8942818501886725e-01 2.7096016131157091e-01  7.4163323418351146e-01 7.8806546085506257e-01 2.7526662155634707e-01  7.4389456975710389e-01 7.8576793623113816e-01 2.8218255722004609e-01  7.5294572023668849e-01 7.7485826352220266e-01 3.1228655310115871e-01  7.5714129687018150e-01 7.6860890175499386e-01 3.2794291303012790e-01  7.6101185711760411e-01 7.6184796525448661e-01 3.4382009791672785e-01  7.6471012564843388e-01 7.5427264916458159e-01 3.6060709700837645e-01  7.6827797866358793e-01 7.4566716168419300e-01 3.7869367033826046e-01  7.7173783924267225e-01 7.3581463634622057e-01 3.9843902081357108e-01  7.7514552175181639e-01 7.2429282728478672e-01 4.2054716724039731e-01  7.8194644973933114e-01 6.9489657788071180e-01 4.7392623797385802e-01  7.8390370307680490e-01 6.8395491511336193e-01 4.9285586235837947e-01  7.8521968010430987e-01 6.7471628366459180e-01 5.0832225115460650e-01  7.8603248024358641e-01 6.6706590845761149e-01 5.2072132944744753e-01  7.8642593070953337e-01 6.5638995226557206e-01 5.3699208315864622e-01  7.8628075386983132e-01 6.4600482955007532e-01 5.5203370929707418e-01  7.8581386534962094e-01 6.3228688588178716e-01 5.7136417833784281e-01  7.8492239202831915e-01 6.1574913838294854e-01 5.9393287873436840e-01  7.8352495177650938e-01 5.9696109483051241e-01 6.1863777806419540e-01  7.8156634725660656e-01 5.7628456111854842e-01 6.4469597958648028e-01  7.7901715221245260e-01 5.5415555601161914e-01 6.7126305105462569e-01  7.7588932534437249e-01 5.3110971968807885e-01 6.9745436620874468e-01  7.7228083669916536e-01 5.0798420144183865e-01 7.2216531843768261e-01  7.6365132269112246e-01 4.6225999933771778e-01 7.6568717504984407e-01  7.5738692099592397e-01 4.3417647739794496e-01 7.8862311774617655e-01  7.5008602111716760e-01 4.0464591622230717e-01 8.0961510679002635e-01  7.4182562805495100e-01 3.7451754596018222e-01 8.2727669947743732e-01  7.3275904511048162e-01 3.4457084878247018e-01 8.4070610269473900e-01  7.2302087866232767e-01 3.1544575107252698e-01 8.4921017080002104e-01  7.1274256361404809e-01 2.8761662224246781e-01 8.5241225623536809e-01  7.0207819494923740e-01 2.6148328281141742e-01 8.5022532212083446e-01  6.9119760809925446e-01 2.3735517215534996e-01 8.4284704413685330e-01  6.8020823062151881e-01 2.1535453777628100e-01 8.3056137543165209e-01  6.6923599917807042e-01 1.9553591475913443e-01 8.1389581919481024e-01  6.5840057565948507e-01 1.7789563541195128e-01 7.9348123128511638e-01  6.4771659732945530e-01 1.6227786768362856e-01 7.6973396846784448e-01  6.3734387707333429e-01 1.4872927601301739e-01 7.4341743082795164e-01  6.2718651024860550e-01 1.3687476052600892e-01 7.1482942841699948e-01  6.0815654444370348e-01 1.1813883302251835e-01 6.5451701453457345e-01  5.9948739101995663e-01 1.1106356625713833e-01 6.2433479668823144e-01  5.9110366002242531e-01 1.0504511638874867e-01 5.9371769550207376e-01  5.8291295020715406e-01 1.0000793615211455e-01 5.6244277680646293e-01  5.7486889356789150e-01 9.5833441022997720e-02 5.3058309920997471e-01  5.6675174409995288e-01 9.2408022562937522e-02 4.9739291753650361e-01  5.5811272690800728e-01 8.9599800853537998e-02 4.6113320690122545e-01  5.3713996583900492e-01 8.5681683427052721e-02 3.7094242925577470e-01  5.2968102436423181e-01 8.5416673524462777e-02 3.3836726020251018e-01  5.2348494780661092e-01 8.5944156384779161e-02 3.1104740056071384e-01  5.1813598198508337e-01 8.7180689252375085e-02 2.8718731229635069e-01  5.1346543930842026e-01 8.9082996033666803e-02 2.6605528777083970e-01  5.0942253455061137e-01 9.1619622720586047e-02 2.4741818984415209e-01  5.0601378672147512e-01 9.4719612762980077e-02 2.3129405146564630e-01  5.0330711107794224e-01 9.8179567986407201e-02 2.1802032421813486e-01  5.0037384739645574e-01 1.0460638499622010e-01 2.0223785595676699e-01  4.9883834840255092e-01 1.1036704095717699e-01 1.9266804816453909e-01  4.9728219255531475e-01 1.1865820084880083e-01 1.8157657118784762e-01  4.9468777151632737e-01 1.4788721327366472e-01 1.5390663062743776e-01  4.9452178780268802e-01 1.6386300779367052e-01 1.4349789452872624e-01  4.9510226315607969e-01 1.8098239617518702e-01 1.3505740363859281e-01  4.9643105446272107e-01 1.9982784780311968e-01 1.2812061139531097e-01  4.9855798272185770e-01 2.2081403917142783e-01 1.2248593223885280e-01  5.0157157811875708e-01 2.4454075196578084e-01 1.1792949920553292e-01  5.0559717205174881e-01 2.7184435118192946e-01 1.1416931940018364e-01  5.1751503052211434e-01 3.4284857890699594e-01 1.0717615793951706e-01  5.2216255254908761e-01 3.6841165007088827e-01 1.0500247637016499e-01  5.2629244395663577e-01 3.8995234677774421e-01 1.0345373206509557e-01  5.3007835920749058e-01 4.0868659507628496e-01 1.0242331791978448e-01  5.3358104762323566e-01 4.2514487668923595e-01 1.0184673806390096e-01  5.3682051408018550e-01 4.3962905927491935e-01 1.0165357085806193e-01  5.3977687905399885e-01 4.5227006180810325e-01 1.0174716396129586e-01  5.4241120724878977e-01 4.6312551852968564e-01 1.0201344179445124e-01  5.4471073028195305e-01 4.7231586719123259e-01 1.0236940568535927e-01  5.4663080603346625e-01 4.7984309320370239e-01 1.0271053016039612e-01  5.4817288804782427e-01 4.8581493817193000e-01 1.0299467904383647e-01  5.4930159820993973e-01 4.9021178126863857e-01 1.0315217854900594e-01  5.5002569557096725e-01 4.9310972585659124e-01 1.0317562184886654e-01  5.5041236338215094e-01 4.9471151976636285e-01 1.0313739582300732e-01  5.5160329118491447e-01 4.9778285211962731e-01 1.0453152802064769e-01  5.5527173902975624e-01 5.0643174547702474e-01 1.0942077259931464e-01  5.6139647166905049e-01 5.2026230986862920e-01 1.1786119914061140e-01  5.6978486353138902e-01 5.3796665064709870e-01 1.3002474633923836e-01  5.8042188747657386e-01 5.5851645280278028e-01 1.4638331150454459e-01  6.0285648581683249e-01 5.9419337802504557e-01 1.8558791195163571e-01  5.9801549141326771e-01 5.9253958937431961e-01 1.7200914165219611e-01  5.9634763429864301e-01 5.9380038645794009e-01 1.6559786419182282e-01  5.9548682520266871e-01 5.9505927850755846e-01 1.6165741911664130e-01  5.9499913515335423e-01 5.9587575125746040e-01 1.5929529198030040e-01  5.9504623281523794e-01 5.9579948195620869e-01 1.5952245861737113e-01  5.9565914734880521e-01 5.9463881395531748e-01 1.6261465275501966e-01  5.9628367693249773e-01 5.9206185825046254e-01 1.6700103595921806e-01  6.3315253578889308e-01 6.0947343076927685e-01 2.6563642998085829e-01  6.4756078264780415e-01 6.0953987840521229e-01 3.1084472598013796e-01  6.5979637208203190e-01 6.0250145623852081e-01 3.5709872911762869e-01  6.6988113537775840e-01 5.8863248099827847e-01 4.0487440040361328e-01  6.7754855415705573e-01 5.6810015391746538e-01 4.5370424134320514e-01  6.8246632825479214e-01 5.4128118865634678e-01 5.0232504523307209e-01  6.8424151738587069e-01 5.0849544607953956e-01 5.4891762062531357e-01  6.8243171718864848e-01 4.7005698723136091e-01 5.9093845695937741e-01  6.7637933036457598e-01 4.2582927026570999e-01 6.2494354617578851e-01  6.4705155320491636e-01 3.1989540761325908e-01 6.4453795162957228e-01  6.3192110527851086e-01 2.8640936652002741e-01 6.2408799267680770e-01  6.1767691218354226e-01 2.6333276821741075e-01 5.9249303342384529e-01  6.0464909257294863e-01 2.4893621337168173e-01 5.5438831687573986e-01  5.9307704559990881e-01 2.4169188377086406e-01 5.1359522687603310e-01  5.8306176146725153e-01 2.4038741188702201e-01 4.7268374444307126e-01  5.7454955126867679e-01 2.4375996827335850e-01 4.3328662838440674e-01  5.6738021096772939e-01 2.5054563692507348e-01 3.9629082549396116e-01  5.6133276946644883e-01 2.5944421536977308e-01 3.6214895058475310e-01  5.5620309718529448e-01 2.6916890614580902e-01 3.3124697703902817e-01  5.5181802649373946e-01 2.7843948399491569e-01 3.0402423337482626e-01  5.4812999654110406e-01 2.8607990153517598e-01 2.8132498592436056e-01  5.4286680517643915e-01 2.9359800202496900e-01 2.5205875254119642e-01  5.3893443014668718e-01 2.9551511801202435e-01 2.3357512530615518e-01  5.3398299096875002e-01 2.9506304581673359e-01 2.1295416612359416e-01  5.2762046476533730e-01 2.9104104014701992e-01 1.8966651990115535e-01  5.1218904703743906e-01 2.7647713411355468e-01 1.3836682577250117e-01  5.1047144594753469e-01 2.7576661146457165e-01 1.3211941688748186e-01  5.0983689577333902e-01 2.7581796183606899e-01 1.2960762663053949e-01  5.0982390873126981e-01 2.7581889166388712e-01 1.2955661071830216e-01  5.1018845762460729e-01 2.7545024978727395e-01 1.3123941213576670e-01  5.1035612944980946e-01 2.7413438061263501e-01 1.3284870890939293e-01  5.0962486636461590e-01 2.7075694163988995e-01 1.3245288260279456e-01  5.0472669633665901e-01 2.5660220387435551e-01 1.2368080798267003e-01  5.0217955175060180e-01 2.4978710769276213e-01 1.1875635014792336e-01  5.0010669105493155e-01 2.4447904160668107e-01 1.1459409596879341e-01  4.9871771822493421e-01 2.4097724576658422e-01 1.1177368588028398e-01  4.9825413396313584e-01 2.3978991398551139e-01 1.1084652749003934e-01  4.9861814322990577e-01 2.4063949827190492e-01 1.1163209856096552e-01  4.9964725257557840e-01 2.4297484607550432e-01 1.1390209909799738e-01  5.0130301258309606e-01 2.4616526201038139e-01 1.1795788482789026e-01  5.0250035489470968e-01 2.3974659038359056e-01 1.2687518189279892e-01  5.0083548398691002e-01 2.3085172845535354e-01 1.2659136012662439e-01  4.9928711169054651e-01 2.2264272412166083e-01 1.2623260809031289e-01  4.9804375649372595e-01 2.1550317944404659e-01 1.2627253429132304e-01  4.9719276699941878e-01 2.0994485568799082e-01 1.2672068266130476e-01  4.9685656080078605e-01 2.0427012574609876e-01 1.2918225587262364e-01  4.9716652810526135e-01 1.9990195283352041e-01 1.3323988923046218e-01  4.9781288305