<?xml version="1.0"?>
<VTKFile type="UnstructuredGrid"  version="0.1"  >
<UnstructuredGrid>
<Piece  NumberOfPoints="7288" NumberOfCells="14083">
<Points>
<DataArray  type="Float64"  NumberOfComponents="3"  format="ascii">239.8 188 0  250.2 180 0  258.2 172.4 0  257 169.4 0  259.9 157.4 0  258.7 150.3 0  261 143.5 0  251.7 144.4 0  250 138.7 0  247 138.1 0  245.2 130.8 0  247.3 126.4 0  242.7 118.6 0  231.2 107.7 0  226 102.4 0  226.5 93.90000000000001 0  224.5 91.19999999999999 0  224.5 84.09999999999999 0  234.5 73.80000000000001 0  228.4 68.90000000000001 0  230 70 0  233.4 68 0  222.7 61.5 0  220.6 45.5 0  223.4 49.40000000000001 0  224 47 0  221.8 43.09999999999999 0  221 38.40000000000001 0  219.5 38.5 0  219.4 41.69999999999999 0  217.1 36.90000000000001 0  209.7 36 0  209.5 31.69999999999999 0  205.1 29.90000000000001 0  201.5 30.40000000000001 0  199.2 38.69999999999999 0  201.8 41.40000000000001 0  194.8 53.80000000000001 0  196.1 57.69999999999999 0  193 59 0  191.4 66.09999999999999 0  193.5 66.5 0  194.1 64.40000000000001 0  195.6 64.69999999999999 0  195.4 72.40000000000001 0  199.5 77.30000000000001 0  197.7 86.90000000000001 0  200.6 87.5 0  201.5 91 0  198 94.80000000000001 0  198.6 100 0  197.3 105.4 0  198 109.5 0  197 112.7 0  198.3 116.1 0  201.3 122 0  207.2 121 0  208.1 126.7 0  205.6 127.9 0  209.1 134.9 0  210.9 144.4 0  210.1 147.9 0  213 148.4 0  215.4 149.3 0  215.1 152.8 0  219.9 159.7 0  220.3 163.2 0  218.7 164.9 0  219.9 166.7 0  221.9 169.7 0  220 170.3 0  224.9 174.7 0  229.8 177.4 0  229.7 181 0  228 172.9 0  239 178 0  240.4 180 0  239 181.5 0  241.2 185.9 0  242.95 187.99 0  240.5875 187.9975 0  241.375 187.995 0  242.1625 187.9925 0  243.6090909090879 187.2636363636397 0  244.2681818181765 186.5372727272785 0  244.9272727272692 185.810909090913 0  245.5863636363531 185.0845454545571 0  246.245454545445 184.3581818181923 0  246.9045454545351 183.6318181818295 0  247.5636363636303 182.9054545454612 0  248.2227272727197 182.1790909090992 0  248.8818181818179 181.4527272727275 0  249.5409090909066 180.7263636363664 0  250.8666666666961 179.3666666666387 0  251.5333333334033 178.7333333332668 0  252.2000000000994 178.0999999999055 0  252.8666666668011 177.466666666539 0  253.5333333335083 176.8333333331671 0  254.2000000002044 176.1999999998058 0  254.8666666669005 175.5666666664445 0  255.5333333336077 174.9333333330727 0  256.2000000002685 174.2999999997449 0  256.8666666668457 173.6666666664966 0  257.5333333334283 173.033333333243 0  257.9000000000077 171.6500000000191 0  257.6000000000015 170.9000000000038 0  257.2999999999954 170.1499999999885 0  257.2230769230778 168.4769230769195 0  257.4461538461543 167.5538461538442 0  257.6692307692309 166.6307692307688 0  257.8923076923074 165.7076923076935 0  258.115384615384 164.7846153846181 0  258.3384615384605 163.8615384615427 0  258.5615384615395 162.9384615384572 0  258.784615384616 162.0153846153819 0  259.0076923076926 161.0923076923065 0  259.2307692307691 160.1692307692311 0  259.4538461538457 159.2461538461558 0  259.6769230769222 158.3230769230804 0  259.750000000001 156.512500000006 0  259.6000000000014 155.6250000000082 0  259.4500000000029 154.7375000000176 0  259.3000000000018 153.8500000000108 0  259.1500000000007 152.962500000004 0  259.0000000000004 152.0750000000026 0  258.849999999999 151.187499999994 0  258.9875000000052 149.4499999999846 0  259.275000000002 148.5999999999941 0  259.5624999999954 147.7500000000135 0  259.849999999995 146.900000000015 0  260.1374999999945 146.0500000000164 0  260.4249999999913 145.2000000000259 0  260.7124999999948 144.3500000000154 0  260.0700000000398 143.5899999999961 0  259.1400000000573 143.6799999999944 0  258.2100000000351 143.7699999999966 0  257.2800000000262 143.8599999999975 0  256.350000000011 143.9499999999989 0  255.4199999999881 144.0400000000011 0  254.4899999999726 144.1300000000026 0  253.5599999999944 144.2200000000005 0  252.6300000000009 144.3099999999999 0  251.4166666666658 143.4499999999971 0  251.1333333333388 142.5000000000182 0  250.8500000000015 141.5500000000051 0  250.5666666666612 140.5999999999818 0  250.2833333333342 139.6500000000029 0  249.2500000000005 138.5500000000001 0  248.5000000000011 138.4000000000002 0  247.7499999999995 138.2499999999999 0  246.7750000000005 137.1875000000023 0  246.5500000000021 136.2750000000085 0  246.3250000000036 135.3625000000147 0  246.1000000000042 134.450000000017 0  245.8750000000022 133.5375000000088 0  245.650000000003 132.6250000000124 0  245.4250000000046 131.7125000000187 0  245.619999999996 129.9200000000084 0  246.0399999999992 129.0400000000017 0  246.4599999999987 128.1600000000028 0  246.8800000000001 127.2799999999997 0  246.8399999999988 125.6199999999979 0  246.3799999999984 124.8399999999973 0  245.9199999999991 124.0599999999985 0  245.4600000000036 123.2800000000062 0  245.0000000000049 122.5000000000082 0  244.5400000000036 121.7200000000062 0  244.0800000000033 120.9400000000056 0  243.6200000000016 120.1600000000027 0  243.1600000000012 119.3800000000021 0  241.9812499999996 117.9187499999997 0  241.2625000000007 117.2375000000007 0  240.5437500000017 116.5562500000017 0  239.8250000000041 115.875000000004 0  239.1062500000066 115.1937500000063 0  238.3875000000076 114.5125000000072 0  237.6687500000087 113.8312500000082 0  236.9500000000083 113.1500000000079 0  236.231250000008 112.4687500000076 0  235.512500000009 111.7875000000085 0  234.7937500000045 111.1062500000043 0  234.0750000000042 110.4250000000039 0  233.3562500000066 109.7437500000062 0  232.6375000000021 109.062500000002 0  231.9187500000031 108.381250000003 0  230.5500000000004 107.0375000000004 0  229.9000000000021 106.3750000000021 0  229.2500000000038 105.7125000000039 0  228.6000000000041 105.0500000000042 0  227.9500000000018 104.3875000000018 0  227.2999999999952 103.7249999999951 0  226.6500000000024 103.0625000000024 0  226.0555555555555 101.4555555555556 0  226.1111111111111 100.5111111111111 0  226.1666666666667 99.56666666666668 0  226.2222222222222 98.62222222222223 0  226.2777777777778 97.67777777777778 0  226.3333333333333 96.73333333333335 0  226.3888888888889 95.78888888888889 0  226.4444444444445 94.84444444444446 0  226 93.22499999999999 0  225.5000000000026 92.55000000000358 0  225.0000000000026 91.87500000000358 0  224.5 90.31250000000068 0  224.5 89.4250000000097 0  224.5 88.53750000001317 0  224.5 87.65000000001388 0  224.5 86.76250000001457 0  224.5 85.87500000001248 0  224.5 84.9874999999993 0  225.1666666666659 83.41333333333409 0  225.8333333333319 82.72666666666818 0  226.4999999999978 82.04000000000228 0  227.1666666666649 81.35333333333514 0  227.8333333333301 80.66666666667 0  228.4999999999942 79.980000000006 0  229.1666666666601 79.2933333333401 0  229.8333333333316 78.60666666666847 0  230.4999999999975 77.92000000000257 0  231.1666666666644 77.23333333333572 0  231.8333333333295 76.54666666667057 0  232.4999999999972 75.86000000000287 0  233.1666666666681 75.17333333333181 0  233.8333333333368 74.48666666666306 0  233.7499999999995 73.16666666666629 0  233.0000000000018 72.53333333333488 0  232.2500000000014 71.90000000000116 0  231.5000000000009 71.26666666666743 0  230.7500000000005 70.63333333333372 0  229.233333333333 68.75000000000006 0  230.0666666666665 68.60000000000004 0  230.8999999999995 68.45000000000009 0  231.7333333333325 68.30000000000015 0  232.566666666667 68.14999999999995 0  232.5499999999897 68.50000000000607 0  231.7 69 0  230.8500000000103 69.49999999999393 0  227.8300000000008 68.16000000000106 0  227.2600000000064 67.42000000000837 0  226.6900000000077 66.68000000001001 0  226.1200000000024 65.94000000000314 0  225.5500000000108 65.20000000001409 0  224.9800000000098 64.46000000001268 0  224.4100000000007 63.72000000000098 0  223.8399999999971 62.97999999999621 0  223.2699999999993 62.23999999999915 0  222.753846153846 60.56923076923239 0  222.8076923076921 59.63846153846478 0  222.8615384615381 58.70769230769827 0  222.9153846153842 57.77692307693071 0  222.9692307692302 56.84615384616315 0  223.0230769230761 55.91538461539836 0  223.0769230769224 54.98461538462665 0  223.1307692307688 54.05384615385345 0  223.184615384615 53.12307692308312 0  223.2384615384611 52.19230769231556 0  223.2923076923071 51.26153846154906 0  223.3461538461533 50.33076923077847 0  222.8400000000024 48.62000000000327 0  222.2800000000047 47.84000000000661 0  221.7200000000005 47.06000000000071 0  221.1600000000003 46.28000000000039 0  221.4500000000116 45.87500000000512 0  222.3 46.25 0  223.1499999999884 46.62499999999488 0  223.5600000000055 46.22000000000981 0  223.1199999999987 45.43999999999767 0  222.6800000000061 44.66000000001075 0  222.2399999999969 43.8799999999944 0  221.6400000000004 42.16000000000253 0  221.4800000000009 41.22000000000548 0  221.3200000000014 40.28000000000801 0  221.1600000000009 39.34000000000556 0  220.25 38.45 0  219.4749999999999 39.30000000000165 0  219.45 40.09999999999999 0  219.425 40.90000000000112 0  219.0166666666641 40.89999999999463 0  218.6333333333375 40.10000000000875 0  218.2500000000016 39.30000000000339 0  217.8666666666635 38.49999999999351 0  217.483333333337 37.70000000000762 0  216.1750000000165 36.78750000000201 0  215.2500000000275 36.67500000000335 0  214.3250000000385 36.56250000000469 0  213.4000000000277 36.45000000000337 0  212.4750000000059 36.33750000000072 0  211.5499999999838 36.22499999999803 0  210.6249999999835 36.11249999999799 0  209.6600000000001 35.14000000000318 0  209.6200000000001 34.28000000000268 0  209.5800000000001 33.42000000000284 0  209.5399999999998 32.55999999999681 0  208.6200000000117 31.34000000000476 0  207.7400000000138 30.98000000000564 0  206.8600000000162 30.62000000000662 0  205.9800000000174 30.26000000000711 0  204.2000000000054 30.02499999999925 0  203.2999999999946 30.15000000000076 0  202.3999999999945 30.27500000000076 0  201.2444444444438 31.32222222222468 0  200.9888888888895 32.24444444
[...]
<PointData  Vectors="f_12"> 
<DataArray  type="Float64"  Name="f_12"  NumberOfComponents="3" format="ascii">4.8177922231747106e-01 1.5855747411306140e-01 9.9496900016769391e-02  4.8274693399536767e-01 1.7685216421881073e-01 9.2578960435887481e-02  4.8945637127756303e-01 2.2616382252620496e-01 8.6586032803864676e-02  4.9954699218857285e-01 2.7393296170160786e-01 9.0926237332713808e-02  6.0880347755220687e-01 6.1575435575726134e-01 1.8167858971240777e-01  6.8243914522733640e-01 6.5858311495733046e-01 3.4791211911233838e-01  7.0492814624395161e-01 6.8737967980446024e-01 3.6214603925368843e-01  6.1802436205943356e-01 3.1192426291571745e-01 5.3784658119397233e-01  5.3756053146500316e-01 1.3489806814647554e-01 3.5293363191079463e-01  5.4019051394337481e-01 1.1310712687889847e-01 3.7560026269043123e-01  6.1858268515013026e-01 1.2790052796497309e-01 6.8466217839378385e-01  6.6049895852030971e-01 1.6814327228539869e-01 8.0415174125111155e-01  6.7904581316835932e-01 1.9381563680909633e-01 8.3990191734561648e-01  5.4722525513021580e-01 9.0422026426963509e-02 4.1351480053087425e-01  5.1028291891795496e-01 1.1831942035265559e-01 2.3944267935965360e-01  5.4324883934527213e-01 1.9137620670838990e-01 3.3878293267100212e-01  5.8031164940930546e-01 2.5157147556825116e-01 4.5002168257388869e-01  6.0535105753910146e-01 4.8170803222196074e-01 3.1829792369462623e-01  4.8610688263419294e-01 1.9423886759682024e-01 9.4317929279402565e-02  4.8404504964371864e-01 1.7286718017206143e-01 9.9469616042457840e-02  4.8414628657940895e-01 1.7620936532395079e-01 9.7918260104377000e-02  4.8196630934617651e-01 1.6178059240336981e-01 9.8572961860795963e-02  4.8237081014500305e-01 1.3639751529470812e-01 1.1395670713496962e-01  4.8243502974139130e-01 1.3990012511439992e-01 1.1220856657093595e-01  4.8257934871830849e-01 1.3721012837580132e-01 1.1421343145311162e-01  4.8239965521937711e-01 1.4055443174999349e-01 1.1171971822277706e-01  4.8239200853754921e-01 1.4070598304818116e-01 1.1160831946685688e-01  4.8236057691615997e-01 1.4132878536629859e-01 1.1115099475723569e-01  4.8236064685983310e-01 1.4132718218660503e-01 1.1115213144123498e-01  4.8237397506948781e-01 1.4103359327769216e-01 1.1136221615154167e-01  4.8232903506721325e-01 1.4181267859998528e-01 1.1076923912700233e-01  4.8228807768758186e-01 1.4239619060092132e-01 1.1029818315510237e-01  4.8225523567241962e-01 1.4295715715666615e-01 1.0986913173997528e-01  4.8224817820789717e-01 1.4306609827661659e-01 1.0978334201427949e-01  4.8224823799612265e-01 1.4305259936531711e-01 1.0979101868975603e-01  4.8228893675783063e-01 1.4226282165363788e-01 1.1037470352244307e-01  4.8235540879061767e-01 1.4106314288090449e-01 1.1127775047409476e-01  4.8279488498814460e-01 1.3394265958468315e-01 1.1679226200659902e-01  4.8289853069550676e-01 1.3203826739852731e-01 1.1821598755688952e-01  4.8295726536209582e-01 1.3096778623917560e-01 1.1901766937115055e-01  4.8252626241007046e-01 1.3312803414636487e-01 1.1630341284357136e-01  4.8254170598504653e-01 1.3376966410902261e-01 1.1600681752211310e-01  4.8283337290315470e-01 1.3128843752616598e-01 1.1840218080449803e-01  4.8272155688140866e-01 1.3233186564899771e-01 1.1743305434560823e-01  4.8384672548854263e-01 1.5299566689071742e-01 1.0992602790062186e-01  5.1114729917697910e-01 2.9442724914823198e-01 1.1750869216421954e-01  6.0335469950939724e-01 5.6678758738304136e-01 2.1873200873792020e-01  6.2810023074990384e-01 5.5338243169675005e-01 3.1627247117573376e-01  6.7677192436471800e-01 4.2470133740656629e-01 6.2424648757609613e-01  6.8957334539466997e-01 3.0950711693813676e-01 7.8783949619946181e-01  6.7016379473962995e-01 2.2744894053673859e-01 8.0360331010462660e-01  6.6616491208118733e-01 1.9418733366879493e-01 8.1259490472622897e-01  6.7500174726235174e-01 1.9982211155369267e-01 8.3031423872695476e-01  6.8807668204398309e-01 2.1730764196900254e-01 8.5107263045215731e-01  6.9370326647184088e-01 2.2522715472388999e-01 8.5839027013949365e-01  6.9714853338425087e-01 2.2962467852404464e-01 8.6252917210282865e-01  6.7951527150751578e-01 2.0045795990252760e-01 8.3802389534702404e-01  7.2506932270153923e-01 2.9010441264283954e-01 8.7237594016716058e-01  7.3657172418207961e-01 3.1703622833582668e-01 8.7090916553257125e-01  7.4746211569952947e-01 3.4637400959186815e-01 8.6204182541333652e-01  7.3880128908858211e-01 3.2753637665253704e-01 8.6627344935423201e-01  7.3604391513870904e-01 3.2152883956484019e-01 8.6733150012647375e-01  7.2770414589617560e-01 3.0352929958123143e-01 8.6808563656554094e-01  7.0305993406590006e-01 2.5711451087091558e-01 8.5658144046547446e-01  6.7952732221760825e-01 2.2420455653556423e-01 8.2822232423469710e-01  6.6943674233267048e-01 3.3280108872407332e-01 7.0384974995352789e-01  6.7021174163158770e-01 5.2836850200120766e-01 4.8325370084823061e-01  6.6362524029321102e-01 5.9241504459835237e-01 3.8418957037094809e-01  6.5252538467797405e-01 6.1355798192576538e-01 3.2419405591417610e-01  6.2476504488276685e-01 6.2067962322197012e-01 2.2811614475210562e-01  6.3314660431152459e-01 6.3272412592194494e-01 2.4144940089321390e-01  5.7262830242339335e-01 5.4227685728472641e-01 1.3681144571172466e-01  5.0063335615988191e-01 2.8126537990686373e-01 8.9973286267739205e-02  4.9156980469534339e-01 2.4400178052807178e-01 8.3019690995003600e-02  5.5568157720697609e-01 4.7932881298858820e-01 1.3280934739133191e-01  4.9023200980054404e-01 2.2498626840129377e-01 8.9862339826117438e-02  4.8423540280882738e-01 1.8316118003878046e-01 9.4008261280613736e-02  4.8265367415522803e-01 1.7037116378219047e-01 9.5895700308990708e-02  4.8183328180504692e-01 1.6009913564317471e-01 9.8826637170660911e-02  4.8178393142643489e-01 1.5905663584222468e-01 9.9236141642566833e-02  4.8178048652241856e-01 1.5862602486622207e-01 9.9463219593073068e-02  4.8178231120394355e-01 1.5876778379241394e-01 9.9390846198062349e-02  4.8178319577165707e-01 1.5892140849879249e-01 9.9308646979358178e-02  4.8179009844417942e-01 1.5942922984609112e-01 9.9050570335344909e-02  4.8180394592692544e-01 1.6011654361246153e-01 9.8716599732309923e-02  4.8182608087877044e-01 1.6103803188605612e-01 9.8280815341527189e-02  4.8185897388030297e-01 1.6217312273773715e-01 9.7762835786366076e-02  4.8190577323709849e-01 1.6352440316289557e-01 9.7171669537384486e-02  4.8196840255626561e-01 1.6507814261209253e-01 9.6521044931317315e-02  4.8205564632589709e-01 1.6688644376096326e-01 9.5811189095832194e-02  4.8216978130390453e-01 1.6893793203892749e-01 9.5055368504901178e-02  4.8231423753668085e-01 1.7122874403893426e-01 9.4266237692701510e-02  4.8250497421672106e-01 1.7385701647013838e-01 9.3441343453855366e-02  4.8300830385021176e-01 1.7986110605118324e-01 9.1768554961152188e-02  4.8330201815350532e-01 1.8300578126282485e-01 9.0984278923982628e-02  4.8365430986345392e-01 1.8645242862975278e-01 9.0218456833211461e-02  4.8407062768410836e-01 1.9021700708755115e-01 8.9477985345887884e-02  4.8455519471335962e-01 1.9429391531130330e-01 8.8777032212636206e-02  4.8510903156428875e-01 1.9866059407617798e-01 8.8129255085831554e-02  4.8575506441615285e-01 2.0339706948296860e-01 8.7561401400593389e-02  4.8648954677577233e-01 2.0843419225203846e-01 8.7097565195802584e-02  4.8729681085197618e-01 2.1363472250419563e-01 8.6762124909865734e-02  4.8814625455968697e-01 2.1878966418143198e-01 8.6574508115907001e-02  4.8894712275517499e-01 2.2338744539129027e-01 8.6534285082730339e-02  4.9022805600783259e-01 2.2996728108320122e-01 8.6878748422991231e-02  4.9202715330962199e-01 2.3867600006008677e-01 8.7618035955050855e-02  4.9490406139048743e-01 2.5233963884394944e-01 8.8860755045254605e-02  5.0593597018496927e-01 3.0287088314346877e-01 9.3840329356170732e-02  5.1218021434315364e-01 3.3008243557079509e-01 9.6862130686601725e-02  5.1888092587138768e-01 3.5799215043033178e-01 1.0036881173661988e-01  5.2618073906965412e-01 3.8689555401213122e-01 1.0453770549929373e-01  5.3411107193354124e-01 4.1658014951022937e-01 1.0949218045513963e-01  5.4264955831069772e-01 4.4662205729638238e-01 1.1532537706595053e-01  5.5173209417561464e-01 4.7646797381674943e-01 1.2210372305831799e-01  5.6126544704749337e-01 5.0553615273210362e-01 1.2987473443625383e-01  5.7110682796541101e-01 5.3313062142160761e-01 1.3865002229228471e-01  5.8115753774682555e-01 5.5874437236630825e-01 1.4854408664420085e-01  5.9111937257961444e-01 5.8165562458981668e-01 1.5932851689889801e-01  6.0067732016147424e-01 6.0119940098503399e-01 1.7080885902283088e-01  6.1687423695641985e-01 6.2755173525146690e-01 1.9428177718673076e-01  6.2643952209250908e-01 6.3912937990664687e-01 2.1086588214422275e-01  6.3652677903080079e-01 6.4878111308881625e-01 2.3022220546090050e-01  6.4660785786197084e-01 6.5567871567971336e-01 2.5181929875644593e-01  6.5633430916055224e-01 6.5967146541257116e-01 2.7498838528939057e-01  6.6548017854137553e-01 6.6106825406125402e-01 2.9894842097958074e-01  6.7403692228573309e-01 6.6036817767026501e-01 3.2326067398960912e-01  6.8942004017643632e-01 6.6014366898571852e-01 3.6364835532976214e-01  6.9426030028593133e-01 6.6246173160281274e-01 3.7245613707364972e-01  6.9785863677948545e-01 6.6663784443704210e-01 3.7530932902992847e-01  7.0056504060265823e-01 6.7158429527589114e-01 3.7471767755524626e-01  7.0254707147606277e-01 6.7700527115905573e-01 3.7160298719705837e-01  7.0390010983388407e-01 6.8207386733077602e-01 3.6744543095351795e-01  7.0468415939039331e-01 6.8590439315287577e-01 3.6371917960808409e-01  7.0465049729727547e-01 6.8502236348038170e-01 3.6490529797997517e-01  7.0371866298294961e-01 6.7665258254602412e-01 3.7474973562857244e-01  7.0196375627659624e-01 6.6116555471617222e-01 3.9260168653245930e-01  6.9906429120038327e-01 6.3785221526194946e-01 4.1814766751825744e-01  6.9455695760703506e-01 6.0607044668315124e-01 4.5012611396780372e-01  6.8791426733780237e-01 5.6590434237024556e-01 4.8547349589834399e-01  6.7850050760545144e-01 5.1790384825023494e-01 5.1940064799751073e-01  6.6555952064726609e-01 4.6267825249146305e-01 5.4574957790572542e-01  6.4755178055219520e-01 3.9886934239171634e-01 5.5662389821310854e-01  5.8698992927520488e-01 2.3637970804960312e-01 4.8564103560022948e-01  5.6789722394216613e-01 1.9587180202766538e-01 4.4058273021004440e-01  5.5438267308971045e-01 1.6926175248526917e-01 4.0318242113978869e-01  5.4531398317779745e-01 1.5174421269300917e-01 3.7609493370513281e-01  5.3977312395326837e-01 1.4042775482219885e-01 3.5924533628364375e-01  5.3715946021828198e-01 1.3229779409920939e-01 3.5263825745070071e-01  5.3694226068370055e-01 1.2740160872602618e-01 3.5433964328422357e-01  5.3763972593572484e-01 1.2121624022768455e-01 3.6056533267008328e-01  5.4587111455147086e-01 1.0531230555399547e-01 4.0364962210264244e-01  5.5231882284958389e-01 1.0184558130638861e-01 4.3276570352062566e-01  5.5996662025105626e-01 1.0079223094974710e-01 4.6566843399043861e-01  5.6884062097008337e-01 1.0175134056106694e-01 5.0242363387204780e-01  5.7893046840679296e-01 1.0468166066998173e-01 5.4261342024653358e-01  5.9022988591599324e-01 1.0964829513381208e-01 5.8567257029526976e-01  6.0294118585610612e-01 1.1693365868948523e-01 6.3162613103819376e-01  6.3327955235670941e-01 1.3997005744487592e-01 7.3098156251969548e-01  6.4369638509356442e-01 1.4971777354653396e-01 7.6124834318064816e-01  6.5166738983123285e-01 1.5800714142938954e-01 7.8258893903537685e-01  6.5742101640014350e-01 1.6448055116519431e-01 7.9691691764828698e-01  6.6275402919271176e-01 1.7102873120906861e-01 8.0904271885669143e-01  6.6602785490604088e-01 1.7537319969433074e-01 8.1581749231695500e-01  6.6953021831601534e-01 1.8017222619035439e-01 8.2272979436577842e-01  6.7289021585503994e-01 1.8490248165347181e-01 8.2906714978305462e-01  6.7577434889394206e-01 1.8905803720661804e-01 8.3427848858871012e-01  6.7802886682944663e-01 1.9236512128064490e-01 8.3820237765859351e-01  6.7952745373633561e-01 1.9458614167186902e-01 8.4073911635791609e-01  6.8017941835878593e-01 1.9554927955376206e-01 8.4182233350689994e-01  6.7998112322614301e-01 1.9523266897444008e-01 8.4148601256781874e-01  6.7697921885902423e-01 1.9074756170642837e-01 8.3629923050825650e-01  6.7354940718526113e-01 1.8578890323630387e-01 8.3002879608547442e-01  6.6885131804842413e-01 1.7923198438209650e-01 8.2089693944432995e-01  6.6286080614313581e-01 1.7126195223347987e-01 8.0834139317373110e-01  6.5568009188172871e-01 1.6225108935237631e-01 7.9202278587982267e-01  6.4741105521135978e-01 1.5258575262578808e-01 7.7157851404861932e-01  6.3819195618016133e-01 1.4268476443723052e-01 7.4677759878301453e-01  6.2821885989465864e-01 1.3297548703804954e-01 7.1769173332956160e-01  6.1774005576854352e-01 1.2384672923983835e-01 6.8477779653240667e-01  6.0695419957957375e-01 1.1558079815175981e-01 6.4852126985361291e-01  5.9610139605968337e-01 1.0837777234028718e-01 6.0982835689324943e-01  5.8541855690392297e-01 1.0235842616388052e-01 5.6978914340002917e-01  5.7502362398198203e-01 9.7555239185423748e-02 5.2912097544043180e-01  5.6519457706558740e-01 9.4039717365572303e-02 4.8925928358955184e-01  5.5590860732914349e-01 9.1682387917540020e-02 4.5053349221429656e-01  5.3978465490697924e-01 9.0239896586902221e-02 3.8120417583275890e-01  5.3318585639015093e-01 9.0988804377193797e-02 3.5207609631574471e-01  5.2735875359637241e-01 9.2603262241015880e-02 3.2593064652364223e-01  5.2232731295404178e-01 9.5152213007567502e-02 3.0286593304204140e-01  5.1809765955765463e-01 9.8614079132098964e-02 2.8290809461371730e-01  5.1466071537368008e-01 1.0315496145974749e-01 2.6589458353216588e-01  5.1205083573363286e-01 1.0922614688214956e-01 2.5167636609973504e-01  5.1021769430558228e-01 1.2887094512708941e-01 2.3351770228807525e-01  5.1156354953682370e-01 1.3772467215015180e-01 2.3435354941070236e-01  5.1403043730135101e-01 1.4608065794311675e-01 2.4013719366623604e-01  5.1749557451854999e-01 1.5416930183994176e-01 2.5028722069190590e-01  5.2184755629270929e-01 1.6207135206364368e-01 2.6434308501370030e-01  5.2695455633661326e-01 1.6985014439981805e-01 2.8173250869806976e-01  5.3260693752669219e-01 1.7755835315155938e-01 3.0150040148856677e-01  5.3840881960049780e-01 1.8508541802513423e-01 3.2192618647529558e-01  5.4805561004675152e-01 1.9787365822643405e-01 3.5501018892339908e-01  5.5587194700120324e-01 2.0918151332979992e-01 3.8037170847742269e-01  5.6618257483657242e-01 2.2566601702220188e-01 4.1167125404687405e-01  5.9543128408265966e-01 2.8520383773374991e-01 4.8313103797593554e-01  6.0692827349687239e-01 3.1765933176175365e-01 4.9918783870022865e-01  6.1573316785811349e-01 3.5105038775572500e-01 5.0066673892751989e-01  6.2165669742572294e-01 3.8469238549972201e-01 4.8830782400273148e-01  6.2418346086337484e-01 4.1677836507788413e-01 4.6293956691112159e-01  6.2294654958353524e-01 4.4522326077485380e-01 4.2637998037504971e-01  6.1739693305641796e-01 4.6754447139517014e-01 3.8009195260788581e-01  5.8906705998689135e-01 4.7883211842354761e-01 2.5885495380310586e-01  5.7464216290554260e-01 4.6383010630320959e-01 2.1856262043771688e-01  5.6095182322798931e-01 4.4077052465720573e-01 1.8798471506714254e-01  5.4812994612133781e-01 4.1242148954027802e-01 1.6440750609796678e-01  5.3639345349924838e-01 3.8125897643328255e-01 1.4620343215847548e-01  5.2589614070470259e-01 3.4939515199006599e-01 1.3218206187145556e-01  5.1673026781978026e-01 3.1854289982732670e-01 1.2146034342431865e-01  5.0891859840485576e-01 2.9000516296620416e-01 1.1333397315916680e-01  5.0240423905036691e-01 2.6460716359062730e-01 1.0721231390167592e-01  4.9712308925792376e-01 2.4290416659394451e-01 1.0266803847887920e-01  4.9297318127422629e-01 2.2512322450246558e-01 9.9350970115924114e-02  4.8987722851349913e-01 2.1141950663490441e-01 9.7019105526138891e-02  4.8775122046192620e-01 2.0178708081113342e-01 9.5484972720995140e-02  4.8651578147424263e-01 1.9610534949382433e-01 9.4617417876282417e-02  4.8613350583307668e-01 1.9414049411227857e-01 9.4463203051661671e-02  4.8607445128627597e-01 1.9320643653290989e-01 9.4799257250309479e-02  4.8590461741454355e-01 1.9129211570895172e-01 9.5321594737229426e-02  4.8561554332884604e-01 1.8835743304106004e-01 9.6019435453484611e-02  4.8512592036770669e-01 1.8392710768402887e-01 9.6878383916520372e-02  4.8370466362141318e-01 1.7246239334513166e-01 9.8536285584094704e-02  4.8319676019558200e-01 1.6985302801799548e-01 9.8267502773185550e-02  4.8267817291353604e-01 1.6661575025542014e-01 9.8310052270784348e-02  4.8230242836508458e-01 1.6411483847072250e-01 9.8422563950175540e-02  4.8207291194848439e-01 1.6253130676688635e-01 9.8520017455065070e-02  4.8209450329611886e-01 1.6268281650545799e-01 9.8509565435628513e-02  4.8240667131253651e-01 1.6482887539175972e-01 9.8380618444577211e-02  4.8296732535566533e-01 1.6854528652935519e-01 9.8215909785493813e-02  4.8376910537541523e-01 1.6858198623012208e-01 1.0093912046150527e-01  4.8339404400216879e-01 1.6389352861557460e-01 1.0228274480415842e-01  4.8303628451036473e-01 1.5920119833620261e-01 1.0367303330446778e-01  4.8273786018619980e-01 1.5474094823773191e-01 1.0512425537913014e-01  4.8251451670447210e-01 1.5064554783620260e-01 1.0661999831837268e-01  4.8236659892461003e-01 1.4699114867604521e-01 1.0812396370833072e-01  4.8228784375620681e-01 1.4379959415758203e-01 1.0960660412406548e-01  4.8226671862760723e-01 1.4103807077631486e-01 1.1104952982537213e-01  4.8229481397356627e-01 1.3865188372038728e-01 1.1245608432712684e-01  4.8246354094087934e-01 1.3478023278791829e-01 1.1516672711377197e-01  4.8253791579250366e-01 1.3401097128998235e-01 1.1584836766288845e-01  4.8259742704807096e-01 1.3368830063211079e-01 1.1623344332816357e-01  4.8264017232596235e-01 1.3366929163348182e-01 1.1639313113843484e-01  4.8266683844321034e-01 1.3385557970686796e-01 1.1638338154648188e-01  4.8267894518823468e-01 1.3418167873845827e-01 1.1624524213673762e-01  4.8267903431915538e-01 1.3459777225124384e-01 1.1601493685904110e-01  4.8266990336438753e-01 1.3506611890196993e-01 1.1572307829527945e-01  4.8265432659740498e-01 1.3555717791783650e-01 1.1539575873525805e-01  4.8263487549840250e-01 1.3604578014869889e-01 1.1505599257714753e-01  4.8261396042029830e-01 1.3650923307653662e-01 1.1472489098823888e-01  4.8259398901093864e-01 1.3692076973561737e-01 1.1442584797697940e-01  4.8256356511367915e-01 1.3751162695096308e-01 1.1399020863776166e-01  4.8254125010405535e-01 1.3793136254688648e-01 1.1367820466309876e-01  4.8251449295707094e-01 1.3842963432764621e-01 1.1330682145181949e-01  4.8248221630059457e-01 1.3902720432062007e-01 1.1286065977939688e-01  4.8241079802102727e-01 1.4035071629066212e-01 1.1187237464683680e-01  4.8240329590455161e-01 1.4048882325635670e-01 1.1176905702805798e-01  4.8240053039337610e-01 1.4053883057283978e-01 1.1173148127924812e-01  4.8240047417732917e-01 1.4053984056194510e-01 1.1173072114242900e-01  4.8240208124283013e-01 1.4051135202889892e-01 1.1175223141233374e-01  4.8240290616756748e-01 1.4049784665765791e-01 1.1176263876310279e-01  4.8240002320284275e-01 1.4055366073041756e-01 1.1172138404862393e-01  4.8238117400391417e-01 1.4091393443257394e-01 1.1145437373536943e-01  4.8237243927066209e-01 1.4108565303256443e-01 1.1132803163638089e-01  4.8236600802742391e-01 1.4121588114203640e-01 1.1123292369249195e-01  4.8236200070984880e-01 1.4129894386897920e-01 1.1117260685768177e-01  4.8236069545383803e-01 1.4132622879815729e-01 1.1115283346493367e-01  4.8236165905108097e-01 1.4130566878088879e-01 1.1116765917674756e-01  4.8236440057815905e-01 1.4124731039217514e-01 1.1120976328264671e-01  4.8236857847677483e-01 1.4115669844975795e-01 1.1127484159620973e-01  4.8236357537232644e-01 1.4120469886418738e-01 1.1123004907803558e-01  4.8235362068631688e-01 1.4137859568409203e-01 1.1109798579707852e-01  4.8234474697342866e-01 1.4153590750068812e-01 1.1097899100743533e-01  4.8233737033001728e-01 1.4166677331789002e-01 1.1088001090131264e-01  4.8233187316477349e-01 1.4176366007380059e-01 1.1080659376047035e-01  4.8232704884416167e-01 1.4184280941268457e-01 1.1074539151706139e-01  4.8232411821337157e-01 1.4188389372659599e-01 1.1071205904408957e-01  4.8232065321