<?xml version="1.0"?>
<VTKFile type="UnstructuredGrid"  version="0.1"  >
<UnstructuredGrid>
<Piece  NumberOfPoints="7288" NumberOfCells="14083">
<Points>
<DataArray  type="Float64"  NumberOfComponents="3"  format="ascii">239.8 188 0  250.2 180 0  258.2 172.4 0  257 169.4 0  259.9 157.4 0  258.7 150.3 0  261 143.5 0  251.7 144.4 0  250 138.7 0  247 138.1 0  245.2 130.8 0  247.3 126.4 0  242.7 118.6 0  231.2 107.7 0  226 102.4 0  226.5 93.90000000000001 0  224.5 91.19999999999999 0  224.5 84.09999999999999 0  234.5 73.80000000000001 0  228.4 68.90000000000001 0  230 70 0  233.4 68 0  222.7 61.5 0  220.6 45.5 0  223.4 49.40000000000001 0  224 47 0  221.8 43.09999999999999 0  221 38.40000000000001 0  219.5 38.5 0  219.4 41.69999999999999 0  217.1 36.90000000000001 0  209.7 36 0  209.5 31.69999999999999 0  205.1 29.90000000000001 0  201.5 30.40000000000001 0  199.2 38.69999999999999 0  201.8 41.40000000000001 0  194.8 53.80000000000001 0  196.1 57.69999999999999 0  193 59 0  191.4 66.09999999999999 0  193.5 66.5 0  194.1 64.40000000000001 0  195.6 64.69999999999999 0  195.4 72.40000000000001 0  199.5 77.30000000000001 0  197.7 86.90000000000001 0  200.6 87.5 0  201.5 91 0  198 94.80000000000001 0  198.6 100 0  197.3 105.4 0  198 109.5 0  197 112.7 0  198.3 116.1 0  201.3 122 0  207.2 121 0  208.1 126.7 0  205.6 127.9 0  209.1 134.9 0  210.9 144.4 0  210.1 147.9 0  213 148.4 0  215.4 149.3 0  215.1 152.8 0  219.9 159.7 0  220.3 163.2 0  218.7 164.9 0  219.9 166.7 0  221.9 169.7 0  220 170.3 0  224.9 174.7 0  229.8 177.4 0  229.7 181 0  228 172.9 0  239 178 0  240.4 180 0  239 181.5 0  241.2 185.9 0  242.95 187.99 0  240.5875 187.9975 0  241.375 187.995 0  242.1625 187.9925 0  243.6090909090879 187.2636363636397 0  244.2681818181765 186.5372727272785 0  244.9272727272692 185.810909090913 0  245.5863636363531 185.0845454545571 0  246.245454545445 184.3581818181923 0  246.9045454545351 183.6318181818295 0  247.5636363636303 182.9054545454612 0  248.2227272727197 182.1790909090992 0  248.8818181818179 181.4527272727275 0  249.5409090909066 180.7263636363664 0  250.8666666666961 179.3666666666387 0  251.5333333334033 178.7333333332668 0  252.2000000000994 178.0999999999055 0  252.8666666668011 177.466666666539 0  253.5333333335083 176.8333333331671 0  254.2000000002044 176.1999999998058 0  254.8666666669005 175.5666666664445 0  255.5333333336077 174.9333333330727 0  256.2000000002685 174.2999999997449 0  256.8666666668457 173.6666666664966 0  257.5333333334283 173.033333333243 0  257.9000000000077 171.6500000000191 0  257.6000000000015 170.9000000000038 0  257.2999999999954 170.1499999999885 0  257.2230769230778 168.4769230769195 0  257.4461538461543 167.5538461538442 0  257.6692307692309 166.6307692307688 0  257.8923076923074 165.7076923076935 0  258.115384615384 164.7846153846181 0  258.3384615384605 163.8615384615427 0  258.5615384615395 162.9384615384572 0  258.784615384616 162.0153846153819 0  259.0076923076926 161.0923076923065 0  259.2307692307691 160.1692307692311 0  259.4538461538457 159.2461538461558 0  259.6769230769222 158.3230769230804 0  259.750000000001 156.512500000006 0  259.6000000000014 155.6250000000082 0  259.4500000000029 154.7375000000176 0  259.3000000000018 153.8500000000108 0  259.1500000000007 152.962500000004 0  259.0000000000004 152.0750000000026 0  258.849999999999 151.187499999994 0  258.9875000000052 149.4499999999846 0  259.275000000002 148.5999999999941 0  259.5624999999954 147.7500000000135 0  259.849999999995 146.900000000015 0  260.1374999999945 146.0500000000164 0  260.4249999999913 145.2000000000259 0  260.7124999999948 144.3500000000154 0  260.0700000000398 143.5899999999961 0  259.1400000000573 143.6799999999944 0  258.2100000000351 143.7699999999966 0  257.2800000000262 143.8599999999975 0  256.350000000011 143.9499999999989 0  255.4199999999881 144.0400000000011 0  254.4899999999726 144.1300000000026 0  253.5599999999944 144.2200000000005 0  252.6300000000009 144.3099999999999 0  251.4166666666658 143.4499999999971 0  251.1333333333388 142.5000000000182 0  250.8500000000015 141.5500000000051 0  250.5666666666612 140.5999999999818 0  250.2833333333342 139.6500000000029 0  249.2500000000005 138.5500000000001 0  248.5000000000011 138.4000000000002 0  247.7499999999995 138.2499999999999 0  246.7750000000005 137.1875000000023 0  246.5500000000021 136.2750000000085 0  246.3250000000036 135.3625000000147 0  246.1000000000042 134.450000000017 0  245.8750000000022 133.5375000000088 0  245.650000000003 132.6250000000124 0  245.4250000000046 131.7125000000187 0  245.619999999996 129.9200000000084 0  246.0399999999992 129.0400000000017 0  246.4599999999987 128.1600000000028 0  246.8800000000001 127.2799999999997 0  246.8399999999988 125.6199999999979 0  246.3799999999984 124.8399999999973 0  245.9199999999991 124.0599999999985 0  245.4600000000036 123.2800000000062 0  245.0000000000049 122.5000000000082 0  244.5400000000036 121.7200000000062 0  244.0800000000033 120.9400000000056 0  243.6200000000016 120.1600000000027 0  243.1600000000012 119.3800000000021 0  241.9812499999996 117.9187499999997 0  241.2625000000007 117.2375000000007 0  240.5437500000017 116.5562500000017 0  239.8250000000041 115.875000000004 0  239.1062500000066 115.1937500000063 0  238.3875000000076 114.5125000000072 0  237.6687500000087 113.8312500000082 0  236.9500000000083 113.1500000000079 0  236.231250000008 112.4687500000076 0  235.512500000009 111.7875000000085 0  234.7937500000045 111.1062500000043 0  234.0750000000042 110.4250000000039 0  233.3562500000066 109.7437500000062 0  232.6375000000021 109.062500000002 0  231.9187500000031 108.381250000003 0  230.5500000000004 107.0375000000004 0  229.9000000000021 106.3750000000021 0  229.2500000000038 105.7125000000039 0  228.6000000000041 105.0500000000042 0  227.9500000000018 104.3875000000018 0  227.2999999999952 103.7249999999951 0  226.6500000000024 103.0625000000024 0  226.0555555555555 101.4555555555556 0  226.1111111111111 100.5111111111111 0  226.1666666666667 99.56666666666668 0  226.2222222222222 98.62222222222223 0  226.2777777777778 97.67777777777778 0  226.3333333333333 96.73333333333335 0  226.3888888888889 95.78888888888889 0  226.4444444444445 94.84444444444446 0  226 93.22499999999999 0  225.5000000000026 92.55000000000358 0  225.0000000000026 91.87500000000358 0  224.5 90.31250000000068 0  224.5 89.4250000000097 0  224.5 88.53750000001317 0  224.5 87.65000000001388 0  224.5 86.76250000001457 0  224.5 85.87500000001248 0  224.5 84.9874999999993 0  225.1666666666659 83.41333333333409 0  225.8333333333319 82.72666666666818 0  226.4999999999978 82.04000000000228 0  227.1666666666649 81.35333333333514 0  227.8333333333301 80.66666666667 0  228.4999999999942 79.980000000006 0  229.1666666666601 79.2933333333401 0  229.8333333333316 78.60666666666847 0  230.4999999999975 77.92000000000257 0  231.1666666666644 77.23333333333572 0  231.8333333333295 76.54666666667057 0  232.4999999999972 75.86000000000287 0  233.1666666666681 75.17333333333181 0  233.8333333333368 74.48666666666306 0  233.7499999999995 73.16666666666629 0  233.0000000000018 72.53333333333488 0  232.2500000000014 71.90000000000116 0  231.5000000000009 71.26666666666743 0  230.7500000000005 70.63333333333372 0  229.233333333333 68.75000000000006 0  230.0666666666665 68.60000000000004 0  230.8999999999995 68.45000000000009 0  231.7333333333325 68.30000000000015 0  232.566666666667 68.14999999999995 0  232.5499999999897 68.50000000000607 0  231.7 69 0  230.8500000000103 69.49999999999393 0  227.8300000000008 68.16000000000106 0  227.2600000000064 67.42000000000837 0  226.6900000000077 66.68000000001001 0  226.1200000000024 65.94000000000314 0  225.5500000000108 65.20000000001409 0  224.9800000000098 64.46000000001268 0  224.4100000000007 63.72000000000098 0  223.8399999999971 62.97999999999621 0  223.2699999999993 62.23999999999915 0  222.753846153846 60.56923076923239 0  222.8076923076921 59.63846153846478 0  222.8615384615381 58.70769230769827 0  222.9153846153842 57.77692307693071 0  222.9692307692302 56.84615384616315 0  223.0230769230761 55.91538461539836 0  223.0769230769224 54.98461538462665 0  223.1307692307688 54.05384615385345 0  223.184615384615 53.12307692308312 0  223.2384615384611 52.19230769231556 0  223.2923076923071 51.26153846154906 0  223.3461538461533 50.33076923077847 0  222.8400000000024 48.62000000000327 0  222.2800000000047 47.84000000000661 0  221.7200000000005 47.06000000000071 0  221.1600000000003 46.28000000000039 0  221.4500000000116 45.87500000000512 0  222.3 46.25 0  223.1499999999884 46.62499999999488 0  223.5600000000055 46.22000000000981 0  223.1199999999987 45.43999999999767 0  222.6800000000061 44.66000000001075 0  222.2399999999969 43.8799999999944 0  221.6400000000004 42.16000000000253 0  221.4800000000009 41.22000000000548 0  221.3200000000014 40.28000000000801 0  221.1600000000009 39.34000000000556 0  220.25 38.45 0  219.4749999999999 39.30000000000165 0  219.45 40.09999999999999 0  219.425 40.90000000000112 0  219.0166666666641 40.89999999999463 0  218.6333333333375 40.10000000000875 0  218.2500000000016 39.30000000000339 0  217.8666666666635 38.49999999999351 0  217.483333333337 37.70000000000762 0  216.1750000000165 36.78750000000201 0  215.2500000000275 36.67500000000335 0  214.3250000000385 36.56250000000469 0  213.4000000000277 36.45000000000337 0  212.4750000000059 36.33750000000072 0  211.5499999999838 36.22499999999803 0  210.6249999999835 36.11249999999799 0  209.6600000000001 35.14000000000318 0  209.6200000000001 34.28000000000268 0  209.5800000000001 33.42000000000284 0  209.5399999999998 32.55999999999681 0  208.6200000000117 31.34000000000476 0  207.7400000000138 30.98000000000564 0  206.8600000000162 30.62000000000662 0  205.9800000000174 30.26000000000711 0  204.2000000000054 30.02499999999925 0  203.2999999999946 30.15000000000076 0  202.3999999999945 30.27500000000076 0  201.2444444444438 31.32222222222468 0  200.9888888888895 32.24444444
[...]
<PointData  Vectors="f_12"> 
<DataArray  type="Float64"  Name="f_12"  NumberOfComponents="3" format="ascii">1.0000000000000000e-02 1.0000000000000000e-02 1.0000000000000000e-02  1.0000000000000000e-02 1.0000000000000000e-02 1.0000000000000000e-02  1.0000000000000000e-02 1.0000000000000000e-02 1.0000000000000000e-02  1.0000000000000000e-02 1.0000000000000000e-02 1.0000000000000000e-02  1.0000000000000000e-02 1.0000000000000000e-02 1.0000000000000000e-02  1.0000000000000000e-02 1.0000000000000000e-02 1.0000000000000000e-02  1.0000000000000000e-02 1.0000000000000000e-02 1.0000000000000000e-02  1.0000000000000000e-02 1.0000000000000000e-02 1.0000000000000000e-02  1.0000000000000000e-02 1.0000000000000000e-02 1.0000000000000000e-02  1.0000000000000000e-02 1.0000000000000000e-02 1.0000000000000000e-02  1.0000000000000000e-02 1.0000000000000000e-02 1.0000000000000000e-02  1.0000000000000000e-02 1.0000000000000000e-02 1.0000000000000000e-02  1.0000000000000000e-02 1.0000000000000000e-02 1.0000000000000000e-02  3.6254281710707269e-04 3.6987795694941128e-01 3.4880027354180138e-01  1.5172298810039904e-03 5.1709896215915985e-02 4.4674133715970687e-01  1.7149662076381756e-03 4.9156300415711551e-01 4.6307135465175087e-01  3.9340752979877651e-03 3.1410350865626535e-01 5.6999255781784208e-01  1.8216955692122517e-03 4.8567780437083757e-01 3.6339367307999182e-01  4.1819984326279648e-03 1.8870945392767297e-01 5.5890624782870169e-01  2.3835074047632919e-03 4.2725668178171955e-01 3.0730961994217243e-01  2.8192827807639173e-03 1.4755321095016888e-01 3.1042518255200180e-01  4.9148562455103859e-03 3.8516041630219061e-01 5.5094353683665509e-01  6.9789841242169583e-04 3.3195619598877968e-01 4.1862226184015772e-01  2.0028172065262957e-03 2.7226842233471488e-01 3.7017884506626375e-01  4.4661817224027163e-03 3.0628311484573234e-02 3.7329836867891070e-01  1.0454916500275064e-03 5.0490644896924397e-02 2.5380404519766425e-01  3.3969486300836418e-03 2.9896989067719759e-03 2.7258266379245677e-01  3.4653709410032265e-04 4.2890641691781078e-01 4.8850449480258135e-01  2.6291430381290720e-03 6.9558799161305696e-02 6.4454694114946542e-01  1.7414726668975927e-03 1.8062734041304740e-01 3.3558907034169044e-01  3.7822668582909932e-03 1.8962374764101758e-01 6.2676286621882871e-01  2.0535343271203634e-03 2.4028339735982479e-01 5.1835342654381122e-01  4.2043388494661972e-03 2.2835967753480751e-01 6.0509119717174376e-01  3.0710144202203021e-03 2.9994250695270430e-01 3.7544925933099066e-01  1.4001058145950579e-03 3.3312906925752050e-01 7.4848485790861330e-01  4.4141096134952791e-03 4.6440899860466206e-01 5.4992690638992903e-01  1.3386391132575598e-03 2.1992951702110602e-01 2.5611324832279408e-01  4.4859847888906071e-04 6.1191319078727824e-02 6.4659958533076178e-01  4.2424227272234542e-03 3.1134359445706916e-02 6.3898052740260414e-01  9.1446883645018243e-04 5.6954587214755048e-02 4.4805555103347944e-01  1.5248433405759450e-03 3.8246906262651914e-01 3.6997976507604829e-01  4.6171959336312055e-03 2.3174265592452276e-01 5.2775116746164696e-01  4.2499222612564103e-03 4.0855985659586830e-01 3.8434148982634203e-01  2.0466409157865037e-03 7.2287375111612484e-02 3.4850389260078501e-01  8.6051038837072717e-04 9.6157651944532629e-02 5.4050043981873830e-01  2.6661676573644794e-03 4.4382379593565741e-01 6.5202878012006671e-01  9.1987022689076772e-04 4.5692444761709439e-01 2.5060830753209690e-01  4.5890336019689913e-03 2.6722522523084136e-01 3.9503532120198936e-01  4.2050267905147940e-03 4.6351378836192741e-01 2.6652270060447047e-01  9.5787266767820398e-04 1.4786576068919932e-01 5.0538834143239275e-01  4.3443152808914235e-03 3.6698903495498902e-01 5.4311052653183034e-01  4.2625413573759933e-03 1.7414867342177653e-01 3.1989328297308467e-01  1.0000000000000000e-02 1.0000000000000000e-02 1.0000000000000000e-02  1.0000000000000000e-02 1.0000000000000000e-02 1.0000000000000000e-02  1.0000000000000000e-02 1.0000000000000000e-02 1.0000000000000000e-02  1.0000000000000000e-02 1.0000000000000000e-02 1.0000000000000000e-02  1.0000000000000000e-02 1.0000000000000000e-02 1.0000000000000000e-02  1.0000000000000000e-02 1.0000000000000000e-02 1.0000000000000000e-02  1.0000000000000000e-02 1.0000000000000000e-02 1.0000000000000000e-02  1.0000000000000000e-02 1.0000000000000000e-02 1.0000000000000000e-02  1.0000000000000000e-02 1.0000000000000000e-02 1.0000000000000000e-02  1.0000000000000000e-02 1.0000000000000000e-02 1.0000000000000000e-02  1.0000000000000000e-02 1.0000000000000000e-02 1.0000000000000000e-02  1.0000000000000000e-02 1.0000000000000000e-02 1.0000000000000000e-02  1.0000000000000000e-02 1.0000000000000000e-02 1.0000000000000000e-02  1.0000000000000000e-02 1.0000000000000000e-02 1.0000000000000000e-02  1.0000000000000000e-02 1.0000000000000000e-02 1.0000000000000000e-02  1.0000000000000000e-02 1.0000000000000000e-02 1.0000000000000000e-02  1.0000000000000000e-02 1.0000000000000000e-02 1.0000000000000000e-02  1.0000000000000000e-02 1.0000000000000000e-02 1.0000000000000000e-02  1.0000000000000000e-02 1.0000000000000000e-02 1.0000000000000000e-02  1.0000000000000000e-02 1.0000000000000000e-02 1.0000000000000000e-02  1.0000000000000000e-02 1.0000000000000000e-02 1.0000000000000000e-02  1.0000000000000000e-02 1.0000000000000000e-02 1.0000000000000000e-02  1.0000000000000000e-02 1.0000000000000000e-02 1.0000000000000000e-02  1.0000000000000000e-02 1.0000000000000000e-02 1.0000000000000000e-02  1.0000000000000000e-02 1.0000000000000000e-02 1.0000000000000000e-02  1.0000000000000000e-02 1.0000000000000000e-02 1.0000000000000000e-02  1.0000000000000000e-02 1.0000000000000000e-02 1.0000000000000000e-02  1.0000000000000000e-02 1.0000000000000000e-02 1.0000000000000000e-02  1.0000000000000000e-02 1.0000000000000000e-02 1.0000000000000000e-02  1.0000000000000000e-02 1.0000000000000000e-02 1.0000000000000000e-02  1.0000000000000000e-02 1.0000000000000000e-02 1.0000000000000000e-02  1.0000000000000000e-02 1.0000000000000000e-02 1.0000000000000000e-02  1.0000000000000000e-02 1.0000000000000000e-02 1.0000000000000000e-02  1.0000000000000000e-02 1.0000000000000000e-02 1.0000000000000000e-02  1.0000000000000000e-02 1.0000000000000000e-02 1.0000000000000000e-02  1.0000000000000000e-02 1.0000000000000000e-02 1.0000000000000000e-02  1.0000000000000000e-02 1.0000000000000000e-02 1.0000000000000000e-02  1.0000000000000000e-02 1.0000000000000000e-02 1.0000000000000000e-02  1.0000000000000000e-02 1.0000000000000000e-02 1.0000000000000000e-02  1.0000000000000000e-02 1.0000000000000000e-02 1.0000000000000000e-02  1.0000000000000000e-02 1.0000000000000000e-02 1.0000000000000000e-02  1.0000000000000000e-02 1.0000000000000000e-02 1.0000000000000000e-02  1.0000000000000000e-02 1.0000000000000000e-02 1.0000000000000000e-02  1.0000000000000000e-02 1.0000000000000000e-02 1.0000000000000000e-02  1.0000000000000000e-02 1.0000000000000000e-02 1.0000000000000000e-02  1.0000000000000000e-02 1.0000000000000000e-02 1.0000000000000000e-02  1.0000000000000000e-02 1.0000000000000000e-02 1.0000000000000000e-02  1.0000000000000000e-02 1.0000000000000000e-02 1.0000000000000000e-02  1.0000000000000000e-02 1.0000000000000000e-02 1.0000000000000000e-02  1.0000000000000000e-02 1.0000000000000000e-02 1.0000000000000000e-02  1.0000000000000000e-02 1.0000000000000000e-02 1.0000000000000000e-02  1.0000000000000000e-02 1.0000000000000000e-02 1.0000000000000000e-02  1.0000000000000000e-02 1.0000000000000000e-02 1.0000000000000000e-02  1.0000000000000000e-02 1.0000000000000000e-02 1.0000000000000000e-02  1.0000000000000000e-02 1.0000000000000000e-02 1.0000000000000000e-02  1.0000000000000000e-02 1.0000000000000000e-02 1.0000000000000000e-02  1.0000000000000000e-02 1.0000000000000000e-02 1.0000000000000000e-02  1.0000000000000000e-02 1.0000000000000000e-02 1.0000000000000000e-02  1.0000000000000000e-02 1.0000000000000000e-02 1.0000000000000000e-02  1.0000000000000000e-02 1.0000000000000000e-02 1.0000000000000000e-02  1.0000000000000000e-02 1.0000000000000000e-02 1.0000000000000000e-02  1.0000000000000000e-02 1.0000000000000000e-02 1.0000000000000000e-02  1.0000000000000000e-02 1.0000000000000000e-02 1.0000000000000000e-02  1.0000000000000000e-02 1.0000000000000000e-02 1.0000000000000000e-02  1.0000000000000000e-02 1.0000000000000000e-02 1.0000000000000000e-02  1.0000000000000000e-02 1.0000000000000000e-02 1.0000000000000000e-02  1.0000000000000000e-02 1.0000000000000000e-02 1.0000000000000000e-02  1.0000000000000000e-02 1.0000000000000000e-02 1.0000000000000000e-02  1.0000000000000000e-02 1.0000000000000000e-02 1.0000000000000000e-02  1.0000000000000000e-02 1.0000000000000000e-02 1.0000000000000000e-02  1.0000000000000000e-02 1.0000000000000000e-02 1.0000000000000000e-02  1.0000000000000000e-02 1.0000000000000000e-02 1.0000000000000000e-02  1.0000000000000000e-02 1.0000000000000000e-02 1.0000000000000000e-02  1.0000000000000000e-02 1.0000000000000000e-02 1.0000000000000000e-02  1.0000000000000000e-02 1.0000000000000000e-02 1.0000000000000000e-02  1.0000000000000000e-02 1.0000000000000000e-02 1.0000000000000000e-02  1.0000000000000000e-02 1.0000000000000000e-02 1.0000000000000000e-02  1.0000000000000000e-02 1.0000000000000000e-02 1.0000000000000000e-02  1.0000000000000000e-02 1.0000000000000000e-02 1.0000000000000000e-02  1.0000000000000000e-02 1.0000000000000000e-02 1.0000000000000000e-02  1.0000000000000000e-02 1.0000000000000000e-02 1.0000000000000000e-02  1.0000000000000000e-02 1.0000000000000000e-02 1.0000000000000000e-02  1.0000000000000000e-02 1.0000000000000000e-02 1.0000000000000000e-02  1.0000000000000000e-02 1.0000000000000000e-02 1.0000000000000000e-02  1.0000000000000000e-02 1.0000000000000000e-02 1.0000000000000000e-02  1.0000000000000000e-02 1.0000000000000000e-02 1.0000000000000000e-02  1.0000000000000000e-02 1.0000000000000000e-02 1.0000000000000000e-02  1.0000000000000000e-02 1.0000000000000000e-02 1.0000000000000000e-02  1.0000000000000000e-02 1.0000000000000000e-02 1.0000000000000000e-02  1.0000000000000000e-02 1.0000000000000000e-02 1.0000000000000000e-02  1.0000000000000000e-02 1.0000000000000000e-02 1.0000000000000000e-02  1.0000000000000000e-02 1.0000000000000000e-02 1.0000000000000000e-02  1.0000000000000000e-02 1.0000000000000000e-02 1.0000000000000000e-02  1.0000000000000000e-02 1.0000000000000000e-02 1.0000000000000000e-02  1.0000000000000000e-02 1.0000000000000000e-02 1.0000000000000000e-02  1.0000000000000000e-02 1.0000000000000000e-02 1.0000000000000000e-02  1.0000000000000000e-02 1.0000000000000000e-02 1.0000000000000000e-02  1.0000000000000000e-02 1.0000000000000000e-02 1.0000000000000000e-02  1.0000000000000000e-02 1.0000000000000000e-02 1.0000000000000000e-02  1.0000000000000000e-02 1.0000000000000000e-02 1.0000000000000000e-02  1.0000000000000000e-02 1.0000000000000000e-02 1.0000000000000000e-02  1.0000000000000000e-02 1.0000000000000000e-02 1.0000000000000000e-02  1.0000000000000000e-02 1.0000000000000000e-02 1.0000000000000000e-02  1.0000000000000000e-02 1.0000000000000000e-02 1.0000000000000000e-02  1.0000000000000000e-02 1.0000000000000000e-02 1.0000000000000000e-02  1.0000000000000000e-02 1.0000000000000000e-02 1.0000000000000000e-02  1.0000000000000000e-02 1.0000000000000000e-02 1.0000000000000000e-02  1.0000000000000000e-02 1.0000000000000000e-02 1.0000000000000000e-02  1.0000000000000000e-02 1.0000000000000000e-02 1.0000000000000000e-02  1.0000000000000000e-02 1.0000000000000000e-02 1.0000000000000000e-02  1.0000000000000000e-02 1.0000000000000000e-02 1.0000000000000000e-02  1.0000000000000000e-02 1.0000000000000000e-02 1.0000000000000000e-02  1.0000000000000000e-02 1.0000000000000000e-02 1.0000000000000000e-02  1.0000000000000000e-02 1.0000000000000000e-02 1.0000000000000000e-02  1.0000000000000000e-02 1.0000000000000000e-02 1.0000000000000000e-02  1.0000000000000000e-02 1.0000000000000000e-02 1.0000000000000000e-02  1.0000000000000000e-02 1.0000000000000000e-02 1.0000000000000000e-02  1.0000000000000000e-02 1.0000000000000000e-02 1.0000000000000000e-02  1.0000000000000000e-02 1.0000000000000000e-02 1.0000000000000000e-02  1.0000000000000000e-02 1.0000000000000000e-02 1.0000000000000000e-02  1.0000000000000000e-02 1.0000000000000000e-02 1.0000000000000000e-02  1.0000000000000000e-02 1.0000000000000000e-02 1.0000000000000000e-02  1.0000000000000000e-02 1.0000000000000000e-02 1.0000000000000000e-02  1.0000000000000000e-02 1.0000000000000000e-02 1.0000000000000000e-02  1.0000000000000000e-02 1.0000000000000000e-02 1.0000000000000000e-02  1.0000000000000000e-02 1.0000000000000000e-02 1.0000000000000000e-02  1.0000000000000000e-02 1.0000000000000000e-02 1.0000000000000000e-02  1.0000000000000000e-02 1.0000000000000000e-02 1.0000000000000000e-02  1.0000000000000000e-02 1.0000000000000000e-02 1.0000000000000000e-02  1.0000000000000000e-02 1.0000000000000000e-02 1.0000000000000000e-02  1.0000000000000000e-02 1.0000000000000000e-02 1.0000000000000000e-02  1.0000000000000000e-02 1.0000000000000000e-02 1.0000000000000000e-02  2.1483238760713684e-03 2.6423683734998649e-01 6.8196070213586291e-01  3.8372804546037342e-03 2.4334564491149768e-01 4.5001718374557109e-01  3.4820397657650375e-03 4.7264002795430549e-01 5.9340687194226027e-01  2.1773160939816028e-03 3.8975654889459516e-01 5.2100414879709167e-01  1.6283828788528987e-03 2.3489465681178967e-01 6.3469161274003383e-01  1.6541402561669988e-03 3.9097109350993992e-01 4.3833054395074816e-01  1.8850607022322702e-03 9.6819854107495718e-02 3.9368513016960793e-01  3.4810807748362222e-03 1.6535475187147952e-01 5.0563382238163934e-01  1.1745728458417927e-03 2.7383587463919662e-01 2.7609884568142379e-01  3.5253950044258357e-03 3.0241727644294553e-01 7.2297745105965272e-01  5.8934140198664000e-04 3.3262345419829142e-02 7.1030627324670115e-01  2.1829709725344911e-03 1.4439577655003411e-01 6.6790833444305564e-01  2.4738473446551672e-03 3.1727259390444468e-01 5.7658756984142989e-01  1.1132138144674898e-03 1.2057709672932626e-02 4.9460465359795774e-01  8.4496376770789357e-04 4.0567826088910863e-01 4.0906057012542946e-01  3.2703603713317639e-03 3.5117341418907932e-02 5.8927073892669601e-01  3.9347923338157358e-03 3.4537224802009214e-02 5.0512617725852382e-01  4.6869609300648537e-03 3.5618048781726158e-01 3.8498228379488209e-01  3.2999800082315661e-03 2.3733967413902657e-02 3.8933560595579059e-01  3.5929604503233026e-03 1.0432880420306984e-01 5.8550506309413342e-01  3.7211698573860421e-04 1.8315775494100428e-01 3.2158425752855668e-01  3.2470636103252350e-04 3.3100429672952347e-01 3.5729910558753752e-01  1.1375306619758130e-03 3.7167126641715265e-01 6.6504797872500876e-01  1.3900824070623896e-03 1.3254398400365264e-01 7.4163865238863802e-01  1.9508024576697642e-03 2.3075288954940304e-01 5.3058427599459346e-01  4.4111317581188181e-03 2.4462698368826247e-01 5.6917632210278701e-01  3.4317462348313382e-03 3.4933523306180064e-01 7.2954392496284259e-01  7.0007675492632533e-04 2.6140142312413728e-01 4.6030750433552020e-01  3.8095908115817396e-03 9.6004862193348250e-02 5.8934962245306255e-01  1.3320079484280363e-03 9.4886666315784907e-03 6.1928076685032307e-01  9.7141499800932897e-05 4.8672180575539098e-01 7.2023741707713618e-01  5.3743479382782958e-04 4.9661370291012691e-01 7.2961433735999870e-01  2.7854877477722852e-03 2.2886630894343146e-01 5.7103667783778844e-01  3.7496799455320764e-03 1.8769239743812283e-01 6.2544072124218397e-01  4.6627268458330918e-03 2.6994364358223777e-01 5.6879443677018360e-01  8.2561632571948047e-06 3.1657563574997899e-01 5.9305528533736507e-01  2.6689307537240247e-04 3.9902739735782894e-01 4.8842986725439796e-01  3.0103419491020410e-03 2.7246745528245747e-01 4.3072509416712812e-01  1.7875562250895872e-03 3.7589951565586610e-01 5.5565101634945213e-01  3.6154456977182612e-04 1.4049721618678956e-01 2.5387234625390315e-01  1.8274648267724901e-04 2.4436739434645716e-01 6.1600576884165603e-01  2.6885141510938431e-03 7.7980999705651644e-02 6.4137452450152510e-01  4.1026934625376845e-03 3.2049051101353621e-01 3.5428521414338576e-01  3.7653969830560058e-03 1.1602919208197360e-01 3.0309472054884956e-01  3.8912001084084329e-03 1.9735976994969290e-01 7.3015059592853260e-01  2.1082864418368145e-03 3.5270470899890355e-01 7.4499797804948920e-01  2.5912074422328579e-03 3.9902296888990985e-01 2.5800494760911497e-01  1.9407999065945620e-03 1.8958962354702152e-01 3.5891252156914610e-01  2.2070120601890885e-03 6.2394728583298475e-02 5.4190354301050192e-01  4.5253642589685858e-03 7.0646836438024774e-02 5.3375905340509122e-01  1.8996139883607911e-03 4.7578402484820209e-01 2.9896226727167574e-01  4.8942279117773317e-03 2.1222435506482451e-01 6.5187680263073444e-01  8.9036765436944338e-04 2.9820648433845409e-01 7.0731632316853976e-01  1.1407465009014796e-03 3.9525460037297394e-01 4.5750962526438682e-01  3.5900938024688257e-03 3.2723738468267627e-01 2.7238942664626747e-01  4.7388177490316650e-03 4.6065372405789173e-01 3.9977697114638389e-01  2.2691519282761071e-03 1.0164498635607566e-01 6.5402095825430884e-01  3.6176293663499614e-04 3.2708142743927171e-01 5.5509166411377109e-01  9.7027387021790090e-04 3.7726061230747510e-01 2.9800507980259200e-01  1.0229232047871584e-03 2.6608473567178181e-01 4.2405376172636994e-01  2.1240700477075220e-03 3.8871462189235317e-01 7.1741086965715117e-01  1.9667802790414501e-03 1.4666562130539268e-01 5.2648916622365083e-01  5.3758779162460415e-04 2.4210999100761010e-01 3.2942659913496869e-01  3.1714589812974234e-03 6.7003901335688398e-02 6.2583540137469829e-01  1.9504113553978466e-04 9.4198679766398563e-02 4.0749762764311914e-01  1.5750643318225904e-03 2.4360372747574593e-01 4.7913469684708737e-01  3.1366863783158796e-03 4.3458440358683298e-01 5.8958518660188020e-01  4.9874862504929156e-03 2.9636249627068850e-01 2.7002349211551963e-01  1.2888506888943791e-03 6.4850144123244413e-02 5.6931395751238023e-01  4.7817699486387951e-03 1.4788654371465471e-01 4.7439316144780652e-01  4.8799162731072874e-03 2.8518137895249329e-01 4.8355346132547955e-01  1.0789918302243002e-03 3.0773306114495397e-01 4.3054134350200463e-01  2.2456191660136489e-03 2.7783584672056516e-01 5.7589481371533224e-01  1.6069722486118465e-03 9.8880842143418302e-02 7.4754042930223619e-01  3.8746923551637763e-03 4.8845239331207424e-01 3.3381429194190992e-01  3.1813359612374160e-03 1.9369248607449552e-01 6.1836669108269837e-01  4.8858303305139286e-03 4.1408389854615180e-01 3.4910766975789898e-01  2.8366882650649743e-03 1.1540162063201742e-02 6.5380024660874558e-01  6.7820591802528923e-04 1.9318956029779005e-01 3.3247498604327830e-01  1.3566624500804081e-03 2.7164887360407158e-01 5.4703011351484321e-01  3.7976595648583833e-03 3.4806367262880933e-01 5.7345872150266064e-01  5.1571819548057788e-04 3.6915356142784134e-01 6.9533680341263526e-01  3.0910408560114191e-03 4.5774649643570059e-01 6.8709114227491086e-01  3.4561362954693797e-03 5.4939709508788237e-02 3.7210498410562881e-01  1.1993292628389679e-03 4.1294162056922656e-01 6.8269351721824489e-01  3.1322761302605179e-03 2.3360693730285342e-01 4.4088684496900010e-01  8.9872940819925036e-04 2.7594232103189065e-02 3.0692809436871926e-01  3.9722478835573236e-03 1.2292235281436026e-01 7.1622048368931690e-01  3.8676037134796511e-03 3.3079021591101354e-01 6.8269828980953151e-01  4.6308465405108593e-03 1.1642426125018684e-01 2.8405684073156401e-01  9.1521548927365310e-04 4.3466973075496795e-02 2.7505801135793312e-01  6.4894173591331877e-04 1.5898722480012784e-03 4.9892151501228410e-01  4.8760563948776411e-03 1.8228274083487356e-01 2.5281609671095695e-01  1.8037663017990231e-03 2.8258179625042740e-01 4.0865742728957771e-01  4.4879527960373037e-03 4.8890752418421696e-01 2.9113265508120245e-01  1.6778022984858970e-03 3.5329609730394795e-01 6.5241709723548302e-01  2.3560849263622842e-03 4.6451169650267948e-01 3.2684843373361777e-01  4.2263450872713987e-03 4.7052234723596054e-01 6.7129285384868775e-01  2.8136334298548009e-03 1.2600780350599994e-01 7.0854132176233198e-01  3.8153989839324089e-03 1.4440437789900973e-01 4.4029630618999616e-01  4.5663299660