<?xml version="1.0"?>
<VTKFile type="UnstructuredGrid"  version="0.1"  >
<UnstructuredGrid>
<Piece  NumberOfPoints="7288" NumberOfCells="14083">
<Points>
<DataArray  type="Float64"  NumberOfComponents="3"  format="ascii">239.8 188 0  250.2 180 0  258.2 172.4 0  257 169.4 0  259.9 157.4 0  258.7 150.3 0  261 143.5 0  251.7 144.4 0  250 138.7 0  247 138.1 0  245.2 130.8 0  247.3 126.4 0  242.7 118.6 0  231.2 107.7 0  226 102.4 0  226.5 93.90000000000001 0  224.5 91.19999999999999 0  224.5 84.09999999999999 0  234.5 73.80000000000001 0  228.4 68.90000000000001 0  230 70 0  233.4 68 0  222.7 61.5 0  220.6 45.5 0  223.4 49.40000000000001 0  224 47 0  221.8 43.09999999999999 0  221 38.40000000000001 0  219.5 38.5 0  219.4 41.69999999999999 0  217.1 36.90000000000001 0  209.7 36 0  209.5 31.69999999999999 0  205.1 29.90000000000001 0  201.5 30.40000000000001 0  199.2 38.69999999999999 0  201.8 41.40000000000001 0  194.8 53.80000000000001 0  196.1 57.69999999999999 0  193 59 0  191.4 66.09999999999999 0  193.5 66.5 0  194.1 64.40000000000001 0  195.6 64.69999999999999 0  195.4 72.40000000000001 0  199.5 77.30000000000001 0  197.7 86.90000000000001 0  200.6 87.5 0  201.5 91 0  198 94.80000000000001 0  198.6 100 0  197.3 105.4 0  198 109.5 0  197 112.7 0  198.3 116.1 0  201.3 122 0  207.2 121 0  208.1 126.7 0  205.6 127.9 0  209.1 134.9 0  210.9 144.4 0  210.1 147.9 0  213 148.4 0  215.4 149.3 0  215.1 152.8 0  219.9 159.7 0  220.3 163.2 0  218.7 164.9 0  219.9 166.7 0  221.9 169.7 0  220 170.3 0  224.9 174.7 0  229.8 177.4 0  229.7 181 0  228 172.9 0  239 178 0  240.4 180 0  239 181.5 0  241.2 185.9 0  242.95 187.99 0  240.5875 187.9975 0  241.375 187.995 0  242.1625 187.9925 0  243.6090909090879 187.2636363636397 0  244.2681818181765 186.5372727272785 0  244.9272727272692 185.810909090913 0  245.5863636363531 185.0845454545571 0  246.245454545445 184.3581818181923 0  246.9045454545351 183.6318181818295 0  247.5636363636303 182.9054545454612 0  248.2227272727197 182.1790909090992 0  248.8818181818179 181.4527272727275 0  249.5409090909066 180.7263636363664 0  250.8666666666961 179.3666666666387 0  251.5333333334033 178.7333333332668 0  252.2000000000994 178.0999999999055 0  252.8666666668011 177.466666666539 0  253.5333333335083 176.8333333331671 0  254.2000000002044 176.1999999998058 0  254.8666666669005 175.5666666664445 0  255.5333333336077 174.9333333330727 0  256.2000000002685 174.2999999997449 0  256.8666666668457 173.6666666664966 0  257.5333333334283 173.033333333243 0  257.9000000000077 171.6500000000191 0  257.6000000000015 170.9000000000038 0  257.2999999999954 170.1499999999885 0  257.2230769230778 168.4769230769195 0  257.4461538461543 167.5538461538442 0  257.6692307692309 166.6307692307688 0  257.8923076923074 165.7076923076935 0  258.115384615384 164.7846153846181 0  258.3384615384605 163.8615384615427 0  258.5615384615395 162.9384615384572 0  258.784615384616 162.0153846153819 0  259.0076923076926 161.0923076923065 0  259.2307692307691 160.1692307692311 0  259.4538461538457 159.2461538461558 0  259.6769230769222 158.3230769230804 0  259.750000000001 156.512500000006 0  259.6000000000014 155.6250000000082 0  259.4500000000029 154.7375000000176 0  259.3000000000018 153.8500000000108 0  259.1500000000007 152.962500000004 0  259.0000000000004 152.0750000000026 0  258.849999999999 151.187499999994 0  258.9875000000052 149.4499999999846 0  259.275000000002 148.5999999999941 0  259.5624999999954 147.7500000000135 0  259.849999999995 146.900000000015 0  260.1374999999945 146.0500000000164 0  260.4249999999913 145.2000000000259 0  260.7124999999948 144.3500000000154 0  260.0700000000398 143.5899999999961 0  259.1400000000573 143.6799999999944 0  258.2100000000351 143.7699999999966 0  257.2800000000262 143.8599999999975 0  256.350000000011 143.9499999999989 0  255.4199999999881 144.0400000000011 0  254.4899999999726 144.1300000000026 0  253.5599999999944 144.2200000000005 0  252.6300000000009 144.3099999999999 0  251.4166666666658 143.4499999999971 0  251.1333333333388 142.5000000000182 0  250.8500000000015 141.5500000000051 0  250.5666666666612 140.5999999999818 0  250.2833333333342 139.6500000000029 0  249.2500000000005 138.5500000000001 0  248.5000000000011 138.4000000000002 0  247.7499999999995 138.2499999999999 0  246.7750000000005 137.1875000000023 0  246.5500000000021 136.2750000000085 0  246.3250000000036 135.3625000000147 0  246.1000000000042 134.450000000017 0  245.8750000000022 133.5375000000088 0  245.650000000003 132.6250000000124 0  245.4250000000046 131.7125000000187 0  245.619999999996 129.9200000000084 0  246.0399999999992 129.0400000000017 0  246.4599999999987 128.1600000000028 0  246.8800000000001 127.2799999999997 0  246.8399999999988 125.6199999999979 0  246.3799999999984 124.8399999999973 0  245.9199999999991 124.0599999999985 0  245.4600000000036 123.2800000000062 0  245.0000000000049 122.5000000000082 0  244.5400000000036 121.7200000000062 0  244.0800000000033 120.9400000000056 0  243.6200000000016 120.1600000000027 0  243.1600000000012 119.3800000000021 0  241.9812499999996 117.9187499999997 0  241.2625000000007 117.2375000000007 0  240.5437500000017 116.5562500000017 0  239.8250000000041 115.875000000004 0  239.1062500000066 115.1937500000063 0  238.3875000000076 114.5125000000072 0  237.6687500000087 113.8312500000082 0  236.9500000000083 113.1500000000079 0  236.231250000008 112.4687500000076 0  235.512500000009 111.7875000000085 0  234.7937500000045 111.1062500000043 0  234.0750000000042 110.4250000000039 0  233.3562500000066 109.7437500000062 0  232.6375000000021 109.062500000002 0  231.9187500000031 108.381250000003 0  230.5500000000004 107.0375000000004 0  229.9000000000021 106.3750000000021 0  229.2500000000038 105.7125000000039 0  228.6000000000041 105.0500000000042 0  227.9500000000018 104.3875000000018 0  227.2999999999952 103.7249999999951 0  226.6500000000024 103.0625000000024 0  226.0555555555555 101.4555555555556 0  226.1111111111111 100.5111111111111 0  226.1666666666667 99.56666666666668 0  226.2222222222222 98.62222222222223 0  226.2777777777778 97.67777777777778 0  226.3333333333333 96.73333333333335 0  226.3888888888889 95.78888888888889 0  226.4444444444445 94.84444444444446 0  226 93.22499999999999 0  225.5000000000026 92.55000000000358 0  225.0000000000026 91.87500000000358 0  224.5 90.31250000000068 0  224.5 89.4250000000097 0  224.5 88.53750000001317 0  224.5 87.65000000001388 0  224.5 86.76250000001457 0  224.5 85.87500000001248 0  224.5 84.9874999999993 0  225.1666666666659 83.41333333333409 0  225.8333333333319 82.72666666666818 0  226.4999999999978 82.04000000000228 0  227.1666666666649 81.35333333333514 0  227.8333333333301 80.66666666667 0  228.4999999999942 79.980000000006 0  229.1666666666601 79.2933333333401 0  229.8333333333316 78.60666666666847 0  230.4999999999975 77.92000000000257 0  231.1666666666644 77.23333333333572 0  231.8333333333295 76.54666666667057 0  232.4999999999972 75.86000000000287 0  233.1666666666681 75.17333333333181 0  233.8333333333368 74.48666666666306 0  233.7499999999995 73.16666666666629 0  233.0000000000018 72.53333333333488 0  232.2500000000014 71.90000000000116 0  231.5000000000009 71.26666666666743 0  230.7500000000005 70.63333333333372 0  229.233333333333 68.75000000000006 0  230.0666666666665 68.60000000000004 0  230.8999999999995 68.45000000000009 0  231.7333333333325 68.30000000000015 0  232.566666666667 68.14999999999995 0  232.5499999999897 68.50000000000607 0  231.7 69 0  230.8500000000103 69.49999999999393 0  227.8300000000008 68.16000000000106 0  227.2600000000064 67.42000000000837 0  226.6900000000077 66.68000000001001 0  226.1200000000024 65.94000000000314 0  225.5500000000108 65.20000000001409 0  224.9800000000098 64.46000000001268 0  224.4100000000007 63.72000000000098 0  223.8399999999971 62.97999999999621 0  223.2699999999993 62.23999999999915 0  222.753846153846 60.56923076923239 0  222.8076923076921 59.63846153846478 0  222.8615384615381 58.70769230769827 0  222.9153846153842 57.77692307693071 0  222.9692307692302 56.84615384616315 0  223.0230769230761 55.91538461539836 0  223.0769230769224 54.98461538462665 0  223.1307692307688 54.05384615385345 0  223.184615384615 53.12307692308312 0  223.2384615384611 52.19230769231556 0  223.2923076923071 51.26153846154906 0  223.3461538461533 50.33076923077847 0  222.8400000000024 48.62000000000327 0  222.2800000000047 47.84000000000661 0  221.7200000000005 47.06000000000071 0  221.1600000000003 46.28000000000039 0  221.4500000000116 45.87500000000512 0  222.3 46.25 0  223.1499999999884 46.62499999999488 0  223.5600000000055 46.22000000000981 0  223.1199999999987 45.43999999999767 0  222.6800000000061 44.66000000001075 0  222.2399999999969 43.8799999999944 0  221.6400000000004 42.16000000000253 0  221.4800000000009 41.22000000000548 0  221.3200000000014 40.28000000000801 0  221.1600000000009 39.34000000000556 0  220.25 38.45 0  219.4749999999999 39.30000000000165 0  219.45 40.09999999999999 0  219.425 40.90000000000112 0  219.0166666666641 40.89999999999463 0  218.6333333333375 40.10000000000875 0  218.2500000000016 39.30000000000339 0  217.8666666666635 38.49999999999351 0  217.483333333337 37.70000000000762 0  216.1750000000165 36.78750000000201 0  215.2500000000275 36.67500000000335 0  214.3250000000385 36.56250000000469 0  213.4000000000277 36.45000000000337 0  212.4750000000059 36.33750000000072 0  211.5499999999838 36.22499999999803 0  210.6249999999835 36.11249999999799 0  209.6600000000001 35.14000000000318 0  209.6200000000001 34.28000000000268 0  209.5800000000001 33.42000000000284 0  209.5399999999998 32.55999999999681 0  208.6200000000117 31.34000000000476 0  207.7400000000138 30.98000000000564 0  206.8600000000162 30.62000000000662 0  205.9800000000174 30.26000000000711 0  204.2000000000054 30.02499999999925 0  203.2999999999946 30.15000000000076 0  202.3999999999945 30.27500000000076 0  201.2444444444438 31.32222222222468 0  200.9888888888895 32.24444444
[...]
<PointData  Vectors="f_12"> 
<DataArray  type="Float64"  Name="f_12"  NumberOfComponents="3" format="ascii">7.8063719662365094e-01 4.6737764697310563e-01 7.7977846628744474e-01  7.5951746155011124e-01 3.8766430447933597e-01 8.3960290854461084e-01  7.4511609335367868e-01 3.4001856420185944e-01 8.6407441265939400e-01  7.3915778321967385e-01 3.2356098509079018e-01 8.6910777803294248e-01  7.1523829400091488e-01 2.6319766914388115e-01 8.7492117452164775e-01  7.0179073654937763e-01 2.3510786933730907e-01 8.6704962564571764e-01  7.0192594573612077e-01 2.3487440049646890e-01 8.6757859826574979e-01  6.6201246711443940e-01 1.7101019333565734e-01 8.0456259847766998e-01  6.2794765455184687e-01 1.2904102176801857e-01 7.2003702560968585e-01  6.1760167233884211e-01 1.1961436633720149e-01 6.8768812814640867e-01  5.9771552520945925e-01 1.0538566997250665e-01 6.2151181061435545e-01  6.0107236428502231e-01 1.0936182337316630e-01 6.3418229646301660e-01  6.3525055071446579e-01 1.5056638326076732e-01 7.4058396439658436e-01  7.3219090558081590e-01 5.6026368516255320e-01 5.9179889063661761e-01  6.3993732151692462e-01 6.2847567552491179e-01 2.5878669457454051e-01  5.2661463529888419e-01 3.9659111323274843e-01 9.9322735937636797e-02  5.1105527057078159e-01 3.2815766822055492e-01 9.5017458991641462e-02  5.0085607810458865e-01 1.9479187751415775e-01 1.5028264899642227e-01  5.8885964096353927e-01 1.0491734499363976e-01 5.9125751891708023e-01  6.2420913202314721e-01 1.3758136523185283e-01 7.0781636729713671e-01  6.1667562242898355e-01 1.2839148692666211e-01 6.8558993853452987e-01  6.3881397373918136e-01 1.4608768412306292e-01 7.5605363763610822e-01  7.5432185316478195e-01 4.1399788370939244e-01 8.0295699953482003e-01  7.9816851704051528e-01 6.7429106453991028e-01 5.2171849001993109e-01  7.9879373133702880e-01 6.5456163885136021e-01 5.5166787197734968e-01  7.9795877281723082e-01 6.7870179432942956e-01 5.1489997803419163e-01  7.9786627038872437e-01 6.7954120571868293e-01 5.1354402154100010e-01  7.9761021838513102e-01 6.8337772466936131e-01 5.0750728032017645e-01  7.9761057099425026e-01 6.8336786154512241e-01 5.0752253381544088e-01  7.9768724649909661e-01 6.8155455857223113e-01 5.1033590594174505e-01  7.9713420040323268e-01 6.8682417192874423e-01 5.0183451014240077e-01  7.9622265527034997e-01 6.9304950477366556e-01 4.9148494322580832e-01  7.9547224571076647e-01 6.9939344263457448e-01 4.8105831243912428e-01  7.9528748393456594e-01 7.0083613604268713e-01 4.7866539566878452e-01  7.9528461509253845e-01 7.0076085956218870e-01 4.7877863360777184e-01  7.9611712307422544e-01 6.9222267480582300e-01 4.9265169051308783e-01  7.9703188376190748e-01 6.8121983949360621e-01 5.1019866301867445e-01  7.9910850405171485e-01 6.2566390788358650e-01 5.9382906524679591e-01  7.9743266384829081e-01 5.9955185878407957e-01 6.2899230370799197e-01  7.9640417993400869e-01 5.8496359811510656e-01 6.4816781657642308e-01  7.7217409540420212e-01 4.5792322807646485e-01 7.8221089103054919e-01  7.7039755166008450e-01 4.5344103554822174e-01 7.8488619799291071e-01  7.8916631433750595e-01 5.4188844276351800e-01 6.9801759750365588e-01  7.8194291291583273e-01 5.0788798634666177e-01 7.3264070160000505e-01  7.1175688950480631e-01 2.9405073565809059e-01 8.4091516988304349e-01  5.6526644859438302e-01 1.2174965174793752e-01 4.6980488699304135e-01  4.9457778158280946e-01 1.1916800777752164e-01 1.7216633718758612e-01  4.9286917435251826e-01 1.3662851282782004e-01 1.5497572873618087e-01  4.9023267539388377e-01 1.9236205306649934e-01 1.1068204649301785e-01  4.9338048355795788e-01 2.4177332935139856e-01 9.0828573491674933e-02  5.1350539906678572e-01 3.3867721685998364e-01 9.5693385606464149e-02  5.5219663732450175e-01 4.8834766437017474e-01 1.1384886149109870e-01  5.9376310682305977e-01 6.0233283743442756e-01 1.4594492124849973e-01  6.2295837989651259e-01 6.6346519059051290e-01 1.7202997674771611e-01  6.5167143406531092e-01 6.9777190685544044e-01 2.1261636440580733e-01  6.9517504534034924e-01 7.0784945035170999e-01 3.0972917182031862e-01  7.3046477271009536e-01 5.8918026783476551e-01 5.4649856598671775e-01  7.6246880397587957e-01 4.6749136934658464e-01 7.5883974666545939e-01  7.6893830669244767e-01 4.7066445299017479e-01 7.6400569828200771e-01  7.5980426700279613e-01 4.0852789970059472e-01 8.2009729739740644e-01  7.4217967812986740e-01 3.3617689715501298e-01 8.6379306156475966e-01  7.4138828388545941e-01 3.3237899512429786e-01 8.6580505814557407e-01  7.3596847394403608e-01 3.1800427745612275e-01 8.6928314017023445e-01  7.2340260718968086e-01 2.8582120036534470e-01 8.7353930495225152e-01  7.1732700308017283e-01 2.6980526177351299e-01 8.7458536093519956e-01  7.1535004550123260e-01 2.6479229936112192e-01 8.7414102012229566e-01  7.2621894363885064e-01 2.8984881290404019e-01 8.7506979577290789e-01  7.3144970780946383e-01 3.0233654711881514e-01 8.7430912611756650e-01  7.3387333353092243e-01 3.0842080319784626e-01 8.7337509183083861e-01  7.3754415828271180e-01 3.1789483236473060e-01 8.7149986569293847e-01  7.3779857942308713e-01 3.1839195192283520e-01 8.7150170509581593e-01  7.4112379421179908e-01 3.2769999082950052e-01 8.6880559088667453e-01  7.4798581343104653e-01 3.4822274532666397e-01 8.6092908113541866e-01  7.5136205446685467e-01 3.5777525087591888e-01 8.5707510422848543e-01  7.3882657557189801e-01 3.2243365401750357e-01 8.6968767810482117e-01  7.4889576992527029e-01 3.5496901251614688e-01 8.5597655248863580e-01  7.6272142527386178e-01 4.0095669112563914e-01 8.3000135670081399e-01  7.6933929112784505e-01 4.2409404275343454e-01 8.1459537988194275e-01  7.7844777488311490e-01 4.5863592931489405e-01 7.8727720838562054e-01  7.7971532849299230e-01 4.6362795065958401e-01 7.8305485049355639e-01  7.8052196168946075e-01 4.6691047501106070e-01 7.8018704698581220e-01  7.8026923675593418e-01 4.6588307276808039e-01 7.8108630976353044e-01  7.7997527415630452e-01 4.6468518536874132e-01 7.8213415347552551e-01  7.7907072803400701e-01 4.6103027643776234e-01 7.8529060913745419e-01  7.7791816041641659e-01 4.5641498660098417e-01 7.8921530756429625e-01  7.7642659658401458e-01 4.5049560970290142e-01 7.9415866440058569e-01  7.7467856828886894e-01 4.4363819877263566e-01 7.9975181852571697e-01  7.7272607319103526e-01 4.3608008033178869e-01 8.0574815761199892e-01  7.7063579590964826e-01 4.2810613382069912e-01 8.1187446399325336e-01  7.6843257069073989e-01 4.1983528657056451e-01 8.1800681601413405e-01  7.6618061897728562e-01 4.1151498518035989e-01 8.2394539161471114e-01  7.6394023487361151e-01 4.0336728640798269e-01 8.2952653815827759e-01  7.6171208436521509e-01 3.9539729971069520e-01 8.3475266918125524e-01  7.5759556962667196e-01 3.8097206485782409e-01 8.4362897526408120e-01  7.5586846677671726e-01 3.7502328509778976e-01 8.4706570280276750e-01  7.5426853466224619e-01 3.6958025823748059e-01 8.5008287858911169e-01  7.5279125171546535e-01 3.6461150186973074e-01 8.5272984279286490e-01  7.5143929507909235e-01 3.6011269898425030e-01 8.5503461477111664e-01  7.5020843455045128e-01 3.5605809666209759e-01 8.5703627944078931e-01  7.4906832889279262e-01 3.5235177073489993e-01 8.5879504534596229e-01  7.4801822960871100e-01 3.4898537970113847e-01 8.6033095009330030e-01  7.4706532709433604e-01 3.4597599069823515e-01 8.6165008324713055e-01  7.4621490690219994e-01 3.4333704768590634e-01 8.6275954821496237e-01  7.4551620157720278e-01 3.4121026298741808e-01 8.6361588017810464e-01  7.4458909855545319e-01 3.3853308543580596e-01 8.6458427252740788e-01  7.4342353231947234e-01 3.3527990196290330e-01 8.6565456243832462e-01  7.4168995422490580e-01 3.3048986084237203e-01 8.6713581069100021e-01  7.3612877802142407e-01 3.1535316623502024e-01 8.7120073984170165e-01  7.3361230368210095e-01 3.0863174181548481e-01 8.7266887182936426e-01  7.3132176367915513e-01 3.0260614409158182e-01 8.7376599492829687e-01  7.2919422167763059e-01 2.9709231302003219e-01 8.7457833304693666e-01  7.2721054116484252e-01 2.9202486840972885e-01 8.7515683657106191e-01  7.2535927261560773e-01 2.8736091196585378e-01 8.7554208034534853e-01  7.2363180346440270e-01 2.8306741289337850e-01 8.7576694932094123e-01  7.2201196191390293e-01 2.7909581028142938e-01 8.7585929461090528e-01  7.2049637110570552e-01 2.7543056096126367e-01 8.7583981977751257e-01  7.1904467914973369e-01 2.7197570655329717e-01 8.7571804973799394e-01  7.1767093030075324e-01 2.6875582561644396e-01 8.7551422667141809e-01  7.1636916910425052e-01 2.6575654203212279e-01 8.7523526102597482e-01  7.1398294585129640e-01 2.6043064882263262e-01 8.7447002182417388e-01  7.1242234969551121e-01 2.5704499722211410e-01 8.7381642775739532e-01  7.1070835628399165e-01 2.5338166520574151e-01 8.7299317821710920e-01  7.0889086033979654e-01 2.4955851201666970e-01 8.7200062232950726e-01  7.0703985274481684e-01 2.4572319144178967e-01 8.7086872580536834e-01  7.0522325961254229e-01 2.4201031019408309e-01 8.6964455845725097e-01  7.0346779405377746e-01 2.3846617373888457e-01 8.6835940886703800e-01  7.0088944275869425e-01 2.3325617811553509e-01 8.6637194458167244e-01  7.0047035072231245e-01 2.3236794285602272e-01 8.6606678962428607e-01  7.0047391895567956e-01 2.3229882690553924e-01 8.6613025753352835e-01  7.0069529270414266e-01 2.3265751000413154e-01 8.6637808222275925e-01  7.0106280465383619e-01 2.3330503879126574e-01 8.6674911719747960e-01  7.0146464782511120e-01 2.3403047614907269e-01 8.6713982682275459e-01  7.0179363151933638e-01 2.3463134264234917e-01 8.6745346612036689e-01  7.0170464917890718e-01 2.3446674620395030e-01 8.6736719248805860e-01  7.0091464116223468e-01 2.3301601982927217e-01 8.6659699711145921e-01  6.9945440690018845e-01 2.3035524923844733e-01 8.6511558794901122e-01  6.9726731731265068e-01 2.2642103973145661e-01 8.6276334773023833e-01  6.9428921320257919e-01 2.2116390321024285e-01 8.5930326039013816e-01  6.9048950072379700e-01 2.1462159979611981e-01 8.5446862400380486e-01  6.8582043040588947e-01 2.0683706699337792e-01 8.4788678073418977e-01  6.8014963521712357e-01 1.9775289884152150e-01 8.3896250142276463e-01  6.7299653546342453e-01 1.8684427729955649e-01 8.2631679460831875e-01  6.5069278686782162e-01 1.5573753180100255e-01 7.7956454282049581e-01  6.4340134581623531e-01 1.4650716383507714e-01 7.6198762927561747e-01  6.3764932262174745e-01 1.3965647451565544e-01 7.4711955478537662e-01  6.3314227584500771e-01 1.3456943536592772e-01 7.3485441786733630e-01  6.2978689007639155e-01 1.3094540671831501e-01 7.2538422956314930e-01  6.2694334090427695e-01 1.2806894894423754e-01 7.1699908277828717e-01  6.2490491846507201e-01 1.2614736644239735e-01 7.1074220034737801e-01  6.2201397056019325e-01 1.2351019467148006e-01 7.0170898477188082e-01  6.1196940056151283e-01 1.1485601670040337e-01 6.6943502146645162e-01  6.0807005368808908e-01 1.1173901808043185e-01 6.5653194978013119e-01  6.0496483066374840e-01 1.0940263890184580e-01 6.4607935926550453e-01  6.0245816151489284e-01 1.0764292165677317e-01 6.3753654915945801e-01  6.0049380067559588e-01 1.0638343633246997e-01 6.3079674653685758e-01  5.9904503648065444e-01 1.0558118213940286e-01 6.2583279876766373e-01  5.9810903093222756e-01 1.0522777934593559e-01 6.2268388904164940e-01  5.9797787009483372e-01 1.0602034915818018e-01 6.2268583784075682e-01  5.9862418406697471e-01 1.0683339249077883e-01 6.2517406336419623e-01  5.9948735130930708e-01 1.0776175867658949e-01 6.2839610731878548e-01  6.0039784180308464e-01 1.0868683674519089e-01 6.3173942460642329e-01  6.0191666201973559e-01 1.1021759280433888e-01 6.3717667336639672e-01  6.0352029164134302e-01 1.1186164614978664e-01 6.4279948189555580e-01  6.0575022348194252e-01 1.1418421951388187e-01 6.5050908619159531e-01  6.0858948648499878e-01 1.1721120015598792e-01 6.6014836910079089e-01  6.1197960238338622e-01 1.2094037606523651e-01 6.7140179571125380e-01  6.1591484771565885e-01 1.2543484007958311e-01 6.8411081710309318e-01  6.2035449901688000e-01 1.3073517438981805e-01 6.9798017910920906e-01  6.2520501956142760e-01 1.3682580146904028e-01 7.1254729454267918e-01  6.3031855276809856e-01 1.4361303702036290e-01 7.2720297777153986e-01  6.4114065741469817e-01 1.5954512607072738e-01 7.5536988445199393e-01  6.4828423284632097e-01 1.7133659260145911e-01 7.7166063353273673e-01  6.5620548176909199e-01 1.8557142473757071e-01 7.8761823160521149e-01  6.6480866611063449e-01 2.0257743023132899e-01 8.0214051399935038e-01  6.7387826807039553e-01 2.2241294541600937e-01 8.1403754797257433e-01  6.8319135294890010e-01 2.4515802974739892e-01 8.2209281751570562e-01  6.9253396020897362e-01 2.7086877775153018e-01 8.2523258043774572e-01  7.0162415582763715e-01 2.9936489198365163e-01 8.2254030051271076e-01  7.1013512896936559e-01 3.3018064104730355e-01 8.1346900680808587e-01  7.1780940364834778e-01 3.6298666324829143e-01 7.9767638679792785e-01  7.2436185185799440e-01 3.9709999026865345e-01 7.7537319703854091e-01  7.2951274988847103e-01 4.3165951500005628e-01 7.4716628435936572e-01  7.3308190428684972e-01 4.6619700926283375e-01 7.1356443090132593e-01  7.3475227965566825e-01 4.9935736337593478e-01 6.7595988265287443e-01  7.3449753996896328e-01 5.3093430194814450e-01 6.3505519668979871e-01  7.2808374480973492e-01 5.8483549449350813e-01 5.5031558305389805e-01  7.2215699838186143e-01 6.0568263508135334e-01 5.0934442143826586e-01  7.1446717308129715e-01 6.2279030417167514e-01 4.6894912170620950e-01  7.0484786388366716e-01 6.3566182651401881e-01 4.2904627556488334e-01  6.9336026973869924e-01 6.4397843337729876e-01 3.8964947438093794e-01  6.7968575219770511e-01 6.4703704098684622e-01 3.4998972581790389e-01  6.6293520161836705e-01 6.4322850956590971e-01 3.0838406499473692e-01  6.1593628222574337e-01 6.0302600159646191e-01 2.1373132152379412e-01  5.9763963938434916e-01 5.7629790127782399e-01 1.8342473708272780e-01  5.8191171138844500e-01 5.4743100333430483e-01 1.6018356088717045e-01  5.6813283958245153e-01 5.1740365894920826e-01 1.4187272475393323e-01  5.5612872302859362e-01 4.8749092255262849e-01 1.2746217316684655e-01  5.4589115092954732e-01 4.5902222725835062e-01 1.1637430137770233e-01  5.3743516907193190e-01 4.3325118230297671e-01 1.0815786773559873e-01  5.3084072703121488e-01 4.1152003052117925e-01 1.0247578209529749e-01  5.2371351284459733e-01 3.8530162934981244e-01 9.7729116513172912e-02  5.1986239334215456e-01 3.6934736285976438e-01 9.6134667825465564e-02  5.1573618641132812e-01 3.5092278017182149e-01 9.5139147387190828e-02  5.0681132900707326e-01 3.0514692856307285e-01 9.6258950780983676e-02  5.0400248218799049e-01 2.8742423729201438e-01 9.8591703882544499e-02  5.0202550898825982e-01 2.7201462219667016e-01 1.0209527046867470e-01  5.0066401106572467e-01 2.5772507477226064e-01 1.0691161265017267e-01  4.9984515380820344e-01 2.4385419817315673e-01 1.1332582351801140e-01  4.9951430916250184e-01 2.2963054065281147e-01 1.2171691656781106e-01  4.9973704167321981e-01 2.1431461637338231e-01 1.3288295096437916e-01  5.0305341594986008e-01 1.7533398410215564e-01 1.7187573328498634e-01  5.0569305874120407e-01 1.6075050391617415e-01 1.9210692725823980e-01  5.0906631925877299e-01 1.4820913735335181e-01 2.1414005801894814e-01  5.1334190069467600e-01 1.3722879781677674e-01 2.3910130338978050e-01  5.1863942479446479e-01 1.2774548499705449e-01 2.6765113532735846e-01  5.2501975844806370e-01 1.1980292715948877e-01 3.0013289683043709e-01  5.3247666888940781e-01 1.1346661924389034e-01 3.3657045465589031e-01  5.4089870468042855e-01 1.0876079266919232e-01 3.7650842002211965e-01  5.5003382932269818e-01 1.0561509327578009e-01 4.1885957773677274e-01  5.5947334887914746e-01 1.0389053138010337e-01 4.6181948007801193e-01  5.6865262473196310e-01 1.0332451722721250e-01 5.0293018047398397e-01  5.7685762939094598e-01 1.0356573811891678e-01 5.3914659806093301e-01  5.8333525847800616e-01 1.0417598417442132e-01 5.6738525155003083e-01  5.8747295336905159e-01 1.0474051105928042e-01 5.8525430887273300e-01  5.8918392715078949e-01 1.0530603944927336e-01 5.9227890040634257e-01  5.9066799017784843e-01 1.0659075842712874e-01 5.9747269420022375e-01  5.9355426872587091e-01 1.0899374606947558e-01 6.0758902559023820e-01  5.9802732966103211e-01 1.1276642167524624e-01 6.2301752962134527e-01  6.0486692112905893e-01 1.1857693294208572e-01 6.4615680010489041e-01  6.2275398582367136e-01 1.3385857730976658e-01 7.0548074869510391e-01  6.2599967503431220e-01 1.3555156884002667e-01 7.1653953722995312e-01  6.3086461487943490e-01 1.3927821729654144e-01 7.3199288758020520e-01  6.3488402878576111e-01 1.4263145368525063e-01 7.4432813589385438e-01  6.3753008457376870e-01 1.4493932064069706e-01 7.5226231372658336e-01  6.3727203872137683e-01 1.4470956413150696e-01 7.5149807597202312e-01  6.3370771886185495e-01 1.4162116396380814e-01 7.4076072220653821e-01  6.2786334312541459e-01 1.3685381905826507e-01 7.2249188449124124e-01  6.3407011812202663e-01 1.5006380416201887e-01 7.3452412006580647e-01  6.4513243126825626e-01 1.6466556634753574e-01 7.6219268741741197e-01  6.5730436511440382e-01 1.8231603324501533e-01 7.8887884804213360e-01  6.7027244797762653e-01 2.0327571060609037e-01 8.1249367546636053e-01  6.8376463848676727e-01 2.2774523201415026e-01 8.3120608578370470e-01  6.9746973164811110e-01 2.5565933590954187e-01 8.4355288714426502e-01  7.1119281455783179e-01 2.8710391147756076e-01 8.4835405888472004e-01  7.2489167692227841e-01 3.2242767969795672e-01 8.4465676730325068e-01  7.3873774626197819e-01 3.6271251828571388e-01 8.3106794219881142e-01  7.6796565897525471e-01 4.6456526662755260e-01 7.6630883605110067e-01  7.7681202363313206e-01 5.0165144159355901e-01 7.3386761446372095e-01  7.8326045199033434e-01 5.3214873495872905e-01 7.0365765155537352e-01  7.8798217876043242e-01 5.5745524253499334e-01 6.7622187017833169e-01  7.9144601695552075e-01 5.7857933441280973e-01 6.5175166193808975e-01  7.9394425906366783e-01 5.9610874065747022e-01 6.3037147916895520e-01  7.9571360777035860e-01 6.1060521320381289e-01 6.1195133227947307e-01  7.9693579829135608e-01 6.2254458971221127e-01 5.9626502845508245e-01  7.9775293780521850e-01 6.3233552038258367e-01 5.8303960854261283e-01  7.9827157994516296e-01 6.4028154425377004e-01 5.7205145466251073e-01  7.9857785173026452e-01 6.4663414809515407e-01 5.6309193306934846e-01  7.9873677554672873e-01 6.5151584485064795e-01 5.5609299254237043e-01  7.9878976100182930e-01 6.5724256926248725e-01 5.4770563305085274e-01  7.9873634258353365e-01 6.6061377689396505e-01 5.4266217852401843e-01  7.9862854751356094e-01 6.6429649246240075e-01 5.3708822124680411e-01  7.9845801141105377e-01 6.6844455029072225e-01 5.3074172780220075e-01  7.9802051940597962e-01 6.7732032342394610e-01 5.1703400036692715e-01  7.9797749038725563e-01 6.7825380980443672e-01 5.1559112824364650e-01  7.9796305690873659e-01 6.7859485901314354e-01 5.1506482341720816e-01  7.9796276295373048e-01 6.7860171640130429e-01 5.1505423157824004e-01  7.9796957858650586e-01 6.7840216425567756e-01 5.1536058396444528e-01  7.9796785672598114e-01 6.7828737954238871e-01 5.1553087457702151e-01  7.9793699951888120e-01 6.7860884155418366e-01 5.1501662168220463e-01  7.9777483819283801e-01 6.8082796783863253e-01 5.1151630533830150e-01  7.9770283473283610e-01 6.8188705452651899e-01 5.0984877655749883e-01  7.9765192526751505e-01 6.8268733453958241e-01 5.0859102038457471e-01  7.9762107862309828e-01 6.8319557972490941e-01 5.0779313800100367e-01  7.9761102299681241e-01 6.8336206967630619e-01 5.0753172448880424e-01  7.9761792097495587e-01 6.8323640797265606e-01 5.0772837224062228e-01  7.9763730445953474e-01 6.8287894234576352e-01 5.0828741019781920e-01  7.9766357666864407e-01 6.8232071993694776e-01 5.0915622014503248e-01  7.9755792064365572e-01 6.8266558995343563e-01 5.0853444987416252e-01  7.9744140733228508e-01 6.8381701588867205e-01 5.0668239768694989e-01  7.9733555443086601e-01 6.8488049590277433e-01 5.0497191503573546e-01  7.9724414733256732e-01 6.8578420354820080e-01 5.0351587781057172e-01  7.9717302371938614e-01 6.8646874833542049e-01 5.0241047952451945e-01  7.9710094335317139e-01 6.8706375129146535e-01 5.0143938400049604e-01  7.9704617244150755e-01 6.8741750226946630e-01 5.0085036926686655e-01  7.9697596637