<?xml version="1.0"?>
<VTKFile type="UnstructuredGrid"  version="0.1"  >
<UnstructuredGrid>
<Piece  NumberOfPoints="7288" NumberOfCells="14083">
<Points>
<DataArray  type="Float64"  NumberOfComponents="3"  format="ascii">239.8 188 0  250.2 180 0  258.2 172.4 0  257 169.4 0  259.9 157.4 0  258.7 150.3 0  261 143.5 0  251.7 144.4 0  250 138.7 0  247 138.1 0  245.2 130.8 0  247.3 126.4 0  242.7 118.6 0  231.2 107.7 0  226 102.4 0  226.5 93.90000000000001 0  224.5 91.19999999999999 0  224.5 84.09999999999999 0  234.5 73.80000000000001 0  228.4 68.90000000000001 0  230 70 0  233.4 68 0  222.7 61.5 0  220.6 45.5 0  223.4 49.40000000000001 0  224 47 0  221.8 43.09999999999999 0  221 38.40000000000001 0  219.5 38.5 0  219.4 41.69999999999999 0  217.1 36.90000000000001 0  209.7 36 0  209.5 31.69999999999999 0  205.1 29.90000000000001 0  201.5 30.40000000000001 0  199.2 38.69999999999999 0  201.8 41.40000000000001 0  194.8 53.80000000000001 0  196.1 57.69999999999999 0  193 59 0  191.4 66.09999999999999 0  193.5 66.5 0  194.1 64.40000000000001 0  195.6 64.69999999999999 0  195.4 72.40000000000001 0  199.5 77.30000000000001 0  197.7 86.90000000000001 0  200.6 87.5 0  201.5 91 0  198 94.80000000000001 0  198.6 100 0  197.3 105.4 0  198 109.5 0  197 112.7 0  198.3 116.1 0  201.3 122 0  207.2 121 0  208.1 126.7 0  205.6 127.9 0  209.1 134.9 0  210.9 144.4 0  210.1 147.9 0  213 148.4 0  215.4 149.3 0  215.1 152.8 0  219.9 159.7 0  220.3 163.2 0  218.7 164.9 0  219.9 166.7 0  221.9 169.7 0  220 170.3 0  224.9 174.7 0  229.8 177.4 0  229.7 181 0  228 172.9 0  239 178 0  240.4 180 0  239 181.5 0  241.2 185.9 0  242.95 187.99 0  240.5875 187.9975 0  241.375 187.995 0  242.1625 187.9925 0  243.6090909090879 187.2636363636397 0  244.2681818181765 186.5372727272785 0  244.9272727272692 185.810909090913 0  245.5863636363531 185.0845454545571 0  246.245454545445 184.3581818181923 0  246.9045454545351 183.6318181818295 0  247.5636363636303 182.9054545454612 0  248.2227272727197 182.1790909090992 0  248.8818181818179 181.4527272727275 0  249.5409090909066 180.7263636363664 0  250.8666666666961 179.3666666666387 0  251.5333333334033 178.7333333332668 0  252.2000000000994 178.0999999999055 0  252.8666666668011 177.466666666539 0  253.5333333335083 176.8333333331671 0  254.2000000002044 176.1999999998058 0  254.8666666669005 175.5666666664445 0  255.5333333336077 174.9333333330727 0  256.2000000002685 174.2999999997449 0  256.8666666668457 173.6666666664966 0  257.5333333334283 173.033333333243 0  257.9000000000077 171.6500000000191 0  257.6000000000015 170.9000000000038 0  257.2999999999954 170.1499999999885 0  257.2230769230778 168.4769230769195 0  257.4461538461543 167.5538461538442 0  257.6692307692309 166.6307692307688 0  257.8923076923074 165.7076923076935 0  258.115384615384 164.7846153846181 0  258.3384615384605 163.8615384615427 0  258.5615384615395 162.9384615384572 0  258.784615384616 162.0153846153819 0  259.0076923076926 161.0923076923065 0  259.2307692307691 160.1692307692311 0  259.4538461538457 159.2461538461558 0  259.6769230769222 158.3230769230804 0  259.750000000001 156.512500000006 0  259.6000000000014 155.6250000000082 0  259.4500000000029 154.7375000000176 0  259.3000000000018 153.8500000000108 0  259.1500000000007 152.962500000004 0  259.0000000000004 152.0750000000026 0  258.849999999999 151.187499999994 0  258.9875000000052 149.4499999999846 0  259.275000000002 148.5999999999941 0  259.5624999999954 147.7500000000135 0  259.849999999995 146.900000000015 0  260.1374999999945 146.0500000000164 0  260.4249999999913 145.2000000000259 0  260.7124999999948 144.3500000000154 0  260.0700000000398 143.5899999999961 0  259.1400000000573 143.6799999999944 0  258.2100000000351 143.7699999999966 0  257.2800000000262 143.8599999999975 0  256.350000000011 143.9499999999989 0  255.4199999999881 144.0400000000011 0  254.4899999999726 144.1300000000026 0  253.5599999999944 144.2200000000005 0  252.6300000000009 144.3099999999999 0  251.4166666666658 143.4499999999971 0  251.1333333333388 142.5000000000182 0  250.8500000000015 141.5500000000051 0  250.5666666666612 140.5999999999818 0  250.2833333333342 139.6500000000029 0  249.2500000000005 138.5500000000001 0  248.5000000000011 138.4000000000002 0  247.7499999999995 138.2499999999999 0  246.7750000000005 137.1875000000023 0  246.5500000000021 136.2750000000085 0  246.3250000000036 135.3625000000147 0  246.1000000000042 134.450000000017 0  245.8750000000022 133.5375000000088 0  245.650000000003 132.6250000000124 0  245.4250000000046 131.7125000000187 0  245.619999999996 129.9200000000084 0  246.0399999999992 129.0400000000017 0  246.4599999999987 128.1600000000028 0  246.8800000000001 127.2799999999997 0  246.8399999999988 125.6199999999979 0  246.3799999999984 124.8399999999973 0  245.9199999999991 124.0599999999985 0  245.4600000000036 123.2800000000062 0  245.0000000000049 122.5000000000082 0  244.5400000000036 121.7200000000062 0  244.0800000000033 120.9400000000056 0  243.6200000000016 120.1600000000027 0  243.1600000000012 119.3800000000021 0  241.9812499999996 117.9187499999997 0  241.2625000000007 117.2375000000007 0  240.5437500000017 116.5562500000017 0  239.8250000000041 115.875000000004 0  239.1062500000066 115.1937500000063 0  238.3875000000076 114.5125000000072 0  237.6687500000087 113.8312500000082 0  236.9500000000083 113.1500000000079 0  236.231250000008 112.4687500000076 0  235.512500000009 111.7875000000085 0  234.7937500000045 111.1062500000043 0  234.0750000000042 110.4250000000039 0  233.3562500000066 109.7437500000062 0  232.6375000000021 109.062500000002 0  231.9187500000031 108.381250000003 0  230.5500000000004 107.0375000000004 0  229.9000000000021 106.3750000000021 0  229.2500000000038 105.7125000000039 0  228.6000000000041 105.0500000000042 0  227.9500000000018 104.3875000000018 0  227.2999999999952 103.7249999999951 0  226.6500000000024 103.0625000000024 0  226.0555555555555 101.4555555555556 0  226.1111111111111 100.5111111111111 0  226.1666666666667 99.56666666666668 0  226.2222222222222 98.62222222222223 0  226.2777777777778 97.67777777777778 0  226.3333333333333 96.73333333333335 0  226.3888888888889 95.78888888888889 0  226.4444444444445 94.84444444444446 0  226 93.22499999999999 0  225.5000000000026 92.55000000000358 0  225.0000000000026 91.87500000000358 0  224.5 90.31250000000068 0  224.5 89.4250000000097 0  224.5 88.53750000001317 0  224.5 87.65000000001388 0  224.5 86.76250000001457 0  224.5 85.87500000001248 0  224.5 84.9874999999993 0  225.1666666666659 83.41333333333409 0  225.8333333333319 82.72666666666818 0  226.4999999999978 82.04000000000228 0  227.1666666666649 81.35333333333514 0  227.8333333333301 80.66666666667 0  228.4999999999942 79.980000000006 0  229.1666666666601 79.2933333333401 0  229.8333333333316 78.60666666666847 0  230.4999999999975 77.92000000000257 0  231.1666666666644 77.23333333333572 0  231.8333333333295 76.54666666667057 0  232.4999999999972 75.86000000000287 0  233.1666666666681 75.17333333333181 0  233.8333333333368 74.48666666666306 0  233.7499999999995 73.16666666666629 0  233.0000000000018 72.53333333333488 0  232.2500000000014 71.90000000000116 0  231.5000000000009 71.26666666666743 0  230.7500000000005 70.63333333333372 0  229.233333333333 68.75000000000006 0  230.0666666666665 68.60000000000004 0  230.8999999999995 68.45000000000009 0  231.7333333333325 68.30000000000015 0  232.566666666667 68.14999999999995 0  232.5499999999897 68.50000000000607 0  231.7 69 0  230.8500000000103 69.49999999999393 0  227.8300000000008 68.16000000000106 0  227.2600000000064 67.42000000000837 0  226.6900000000077 66.68000000001001 0  226.1200000000024 65.94000000000314 0  225.5500000000108 65.20000000001409 0  224.9800000000098 64.46000000001268 0  224.4100000000007 63.72000000000098 0  223.8399999999971 62.97999999999621 0  223.2699999999993 62.23999999999915 0  222.753846153846 60.56923076923239 0  222.8076923076921 59.63846153846478 0  222.8615384615381 58.70769230769827 0  222.9153846153842 57.77692307693071 0  222.9692307692302 56.84615384616315 0  223.0230769230761 55.91538461539836 0  223.0769230769224 54.98461538462665 0  223.1307692307688 54.05384615385345 0  223.184615384615 53.12307692308312 0  223.2384615384611 52.19230769231556 0  223.2923076923071 51.26153846154906 0  223.3461538461533 50.33076923077847 0  222.8400000000024 48.62000000000327 0  222.2800000000047 47.84000000000661 0  221.7200000000005 47.06000000000071 0  221.1600000000003 46.28000000000039 0  221.4500000000116 45.87500000000512 0  222.3 46.25 0  223.1499999999884 46.62499999999488 0  223.5600000000055 46.22000000000981 0  223.1199999999987 45.43999999999767 0  222.6800000000061 44.66000000001075 0  222.2399999999969 43.8799999999944 0  221.6400000000004 42.16000000000253 0  221.4800000000009 41.22000000000548 0  221.3200000000014 40.28000000000801 0  221.1600000000009 39.34000000000556 0  220.25 38.45 0  219.4749999999999 39.30000000000165 0  219.45 40.09999999999999 0  219.425 40.90000000000112 0  219.0166666666641 40.89999999999463 0  218.6333333333375 40.10000000000875 0  218.2500000000016 39.30000000000339 0  217.8666666666635 38.49999999999351 0  217.483333333337 37.70000000000762 0  216.1750000000165 36.78750000000201 0  215.2500000000275 36.67500000000335 0  214.3250000000385 36.56250000000469 0  213.4000000000277 36.45000000000337 0  212.4750000000059 36.33750000000072 0  211.5499999999838 36.22499999999803 0  210.6249999999835 36.11249999999799 0  209.6600000000001 35.14000000000318 0  209.6200000000001 34.28000000000268 0  209.5800000000001 33.42000000000284 0  209.5399999999998 32.55999999999681 0  208.6200000000117 31.34000000000476 0  207.7400000000138 30.98000000000564 0  206.8600000000162 30.62000000000662 0  205.9800000000174 30.26000000000711 0  204.2000000000054 30.02499999999925 0  203.2999999999946 30.15000000000076 0  202.3999999999945 30.27500000000076 0  201.2444444444438 31.32222222222468 0  200.9888888888895 32.24444444
[...]
<PointData  Vectors="f_12"> 
<DataArray  type="Float64"  Name="f_12"  NumberOfComponents="3" format="ascii">5.1021786808748815e-01 3.0704206455376565e-01 1.0803950057673936e-01  6.0299469476983847e-01 5.6134872193477814e-01 2.2356182580185191e-01  6.8062422348469642e-01 5.8080223947546017e-01 4.4884596138447247e-01  6.8147269985212267e-01 4.8761618765685366e-01 5.6776690698184518e-01  6.7988310074263358e-01 2.3606267953686214e-01 8.2306733829047263e-01  7.1354845158853153e-01 2.8171018536689962e-01 8.6129237638593026e-01  7.3981849945327793e-01 3.3879599114881653e-01 8.5936436184313036e-01  7.1420313528573043e-01 2.7852025034984329e-01 8.6470261673909632e-01  7.2651014066010411e-01 3.1620335951206785e-01 8.5717708809777771e-01  7.3470493826121097e-01 3.5614627080074623e-01 8.3456364958980045e-01  7.5703349353318883e-01 6.0737890130808125e-01 5.6897585781064641e-01  7.5039953887280242e-01 7.2014266083638256e-01 3.9481050700209847e-01  7.3211182133171515e-01 7.7909333181893614e-01 2.7547357081935814e-01  6.7142125907785277e-01 2.7779453558312628e-01 7.5712954492890039e-01  5.4401983248512142e-01 1.7537207706415087e-01 3.4915471117450447e-01  5.5311902335737873e-01 3.8710833943577910e-01 2.1029627907520745e-01  5.8195247048728460e-01 4.7180270420002596e-01 2.4093293503502700e-01  6.2333377865640893e-01 6.0339056495525323e-01 2.4590125460276624e-01  5.1018714998986170e-01 3.2742642507708086e-01 9.3065171974744079e-02  5.1007848059809313e-01 3.1514884131276516e-01 1.0152773436989411e-01  5.0782239686182373e-01 3.1155055840560580e-01 9.5867144713281810e-02  4.9943394233299165e-01 2.7929210517943615e-01 8.8358314528154597e-02  5.2244934688588640e-01 2.0308081484867579e-01 2.3461949731619944e-01  7.7549191036850940e-01 6.1202872423294563e-01 5.8625392464623061e-01  7.1979810885221163e-01 3.5959700793333638e-01 8.0232293278643585e-01  7.8441869466225123e-01 6.7297226877115990e-01 5.1046770626589788e-01  7.8349159551832726e-01 6.7926215164144432e-01 4.9972218164128646e-01  7.8497959279114904e-01 7.2204538519193551e-01 4.3576039564381458e-01  7.8497435966295726e-01 7.2192761408585904e-01 4.3593789281759254e-01  7.8393930440144166e-01 7.0046955350851603e-01 4.6794298961279218e-01  7.8189213648559952e-01 7.4016731884601450e-01 4.0379704275728084e-01  7.7812842923158587e-01 7.5410163198734781e-01 3.7737164979618681e-01  7.7545360547873510e-01 7.6138365790222262e-01 3.6266392539311049e-01  7.7494296438959209e-01 7.6223446527882266e-01 3.6070646319268174e-01  7.7494300557948281e-01 7.6219843703766688e-01 3.6076433910546757e-01  7.7790596366656584e-01 7.5365733891136089e-01 3.7781395196088297e-01  7.8177414665842659e-01 7.2354850341643684e-01 4.2952559092597320e-01  6.8786512701094271e-01 2.6649005749890448e-01 8.1365332306027927e-01  5.9294647911206222e-01 1.4906785050405763e-01 5.7137428707039806e-01  5.4978972101469770e-01 1.1246661431805184e-01 4.2014777444918894e-01  5.0425480713556137e-01 1.9638419444099869e-01 1.6396214700451625e-01  5.0713833282332532e-01 1.9735823734912025e-01 1.7495190648692865e-01  5.2691350458660680e-01 1.3453010613139529e-01 3.0249089251428146e-01  5.2071930936638999e-01 1.5753711152169428e-01 2.5980073177540952e-01  5.2448261395695817e-01 2.8597634360253260e-01 1.7966856330921477e-01  5.6956608485095150e-01 3.9874891430542214e-01 2.6734524310372820e-01  5.4456135009845841e-01 2.9311167093620483e-01 2.6030890231066861e-01  5.4098625450592153e-01 2.6933961064843287e-01 2.6447095069945525e-01  5.3090063977207169e-01 1.7420261147324520e-01 2.9361441648172587e-01  5.5123598381067085e-01 1.1339605100522349e-01 4.2604004962566067e-01  6.1168511674515602e-01 1.5167863423260758e-01 6.5125270266738799e-01  7.0932120332786108e-01 3.2437905511538195e-01 8.1568931440399473e-01  7.5089755596278640e-01 5.0148150014121651e-01 6.9960003108922031e-01  7.6502562581923106e-01 6.2325898405427349e-01 5.5945001470093281e-01  7.6419721904461324e-01 6.9014940966554328e-01 4.6022447149980861e-01  7.5466257851969887e-01 7.5014388030386503e-01 3.5511572669759739e-01  7.4293713149738205e-01 7.1520767016443665e-01 3.8972288196836119e-01  6.7761641052059196e-01 7.4864157526890984e-01 2.0915610467699305e-01  6.6015812063218715e-01 7.4619378938921921e-01 1.7214193193391761e-01  6.4296080790156152e-01 7.3598227413696493e-01 1.4149960515998633e-01  6.8711445613642719e-01 7.6226519368452039e-01 2.1320135816135385e-01  6.9715610452738663e-01 7.6496511132416878e-01 2.3135520719902519e-01  7.0791345340629019e-01 7.5775974659112544e-01 2.6253664586040554e-01  7.3627864781528907e-01 7.3005968998979298e-01 3.5466234026112764e-01  7.6118588448023627e-01 6.9711710048414655e-01 4.4467137745903385e-01  7.7684864817177512e-01 5.7552306100113693e-01 6.4092797883884489e-01  7.7699800265300378e-01 5.3875180098483277e-01 6.9028566797278390e-01  7.7870547269931201e-01 5.4024684161902903e-01 6.9044090481512865e-01  7.7662096024447569e-01 5.3001857247775142e-01 7.0117150363082659e-01  7.6872788268720271e-01 4.9988383314583867e-01 7.2908698103199399e-01  7.7409445623968864e-01 5.1872285991183020e-01 7.1259542876919102e-01  7.4859722931581862e-01 4.4021206101632898e-01 7.7203847999814057e-01  7.2370219556357529e-01 4.8599320555961512e-01 6.7386049758170297e-01  7.2960051888136113e-01 5.2980574133826808e-01 6.3102942327598999e-01  7.2853440385405033e-01 4.0600045163669574e-01 7.7434646494034320e-01  6.5165452354132680e-01 4.7184682209766071e-01 4.8883617479691865e-01  5.8811552264715494e-01 4.6501920707621253e-01 2.6759751001153104e-01  5.5968748503384225e-01 4.3211149857314152e-01 1.9293662668730391e-01  5.1951759590171853e-01 3.3636622292388818e-01 1.2043845442434226e-01  5.1401597174705527e-01 3.2006559347969205e-01 1.1245401671930677e-01  5.1069832651747726e-01 3.0865377282618151e-01 1.0862556718578879e-01  5.1174352891885810e-01 3.1221057350889647e-01 1.0986521830762330e-01  5.1294905957565207e-01 3.1637881413143448e-01 1.1124423657747891e-01  5.1669820252642085e-01 3.2905607673608006e-01 1.1562783595213812e-01  5.2151108735635143e-01 3.4495187449428671e-01 1.2135914625048037e-01  5.2776411821394931e-01 3.6520529075578612e-01 1.2881670414897861e-01  5.3513243755378992e-01 3.8843996832655781e-01 1.3762090872693994e-01  5.4342351235428987e-01 4.1371698617505293e-01 1.4755618204474197e-01  5.5238421211988376e-01 4.3998613162989680e-01 1.5827240742514725e-01  5.6194872972776111e-01 4.6657766427615921e-01 1.6987453734219046e-01  5.7189788333070501e-01 4.9263786290159117e-01 1.8210952408698977e-01  5.8203758029546182e-01 5.1738462094144777e-01 1.9483381407953473e-01  5.9240194921962008e-01 5.4036950276060036e-01 2.0856975671342598e-01  6.1271709783394179e-01 5.7836918542085314e-01 2.3829505272481386e-01  6.2191764900414026e-01 5.9209968959890724e-01 2.5359628353283076e-01  6.3079291156353923e-01 6.0266737603775211e-01 2.7030879897704996e-01  6.3930276493234217e-01 6.1007391976702641e-01 2.8858982007505468e-01  6.4734195895239077e-01 6.1431156771928763e-01 3.0840344499670652e-01  6.5481455428920854e-01 6.1551812883486035e-01 3.2957803030459992e-01  6.6162956336895540e-01 6.1367807732006963e-01 3.5213684975976461e-01  6.6764536584672640e-01 6.0912037337155445e-01 3.7547896184779678e-01  6.7270938189731244e-01 6.0238194958728275e-01 3.9866238785999664e-01  6.7669199726860596e-01 5.9423480252550742e-01 4.2046163909892476e-01  6.7942199986185314e-01 5.8607685716072655e-01 4.3867371596009569e-01  6.8105980862913107e-01 5.7293634484542399e-01 4.6016529909216741e-01  6.8161174236365207e-01 5.5512139708146924e-01 4.8441963626056778e-01  6.8186463606196690e-01 5.2806731016141883e-01 5.1913563196450163e-01  6.8009523525900162e-01 4.3786225948727170e-01 6.2310137466658366e-01  6.7801528422710000e-01 3.9658365209212737e-01 6.6427302240826946e-01  6.7548407258508170e-01 3.6029513938741115e-01 6.9654299510236783e-01  6.7287962219512854e-01 3.2879850032301866e-01 7.2170290717865004e-01  6.7059096401692153e-01 3.0227296865852166e-01 7.4122520978627915e-01  6.6894518672675130e-01 2.8072973719416899e-01 7.5662289174142539e-01  6.6817303805675765e-01 2.6398708077526406e-01 7.6927628330829967e-01  6.6836136287243431e-01 2.5160043209617999e-01 7.8028266102272081e-01  6.6954441775060514e-01 2.4319487569803361e-01 7.9038055343585190e-01  6.7153704996138841e-01 2.3804579361192463e-01 7.9983007521570371e-01  6.7418266444250274e-01 2.3562885017056309e-01 8.0872220225670077e-01  6.7715900373401117e-01 2.3523725676492374e-01 8.1676603188010499e-01  6.8233232448158898e-01 2.3728947275300380e-01 8.2813325911021507e-01  6.8537977971950859e-01 2.3959287704012627e-01 8.3367199830781258e-01  6.8893409269319617e-01 2.4314285301792776e-01 8.3928767925228898e-01  6.9283238619036092e-01 2.4779288163133820e-01 8.4461956452423892e-01  6.9713202688301479e-01 2.5371145685130253e-01 8.4959289129474858e-01  7.0190083899473332e-01 2.6107036688968432e-01 8.5412189038808695e-01  7.0720395314385587e-01 2.7005640848431423e-01 8.5801951805906851e-01  7.2019043936823202e-01 2.9484038342617180e-01 8.6329607461069269e-01  7.2546816105021750e-01 3.0585983074059120e-01 8.6376414228350673e-01  7.2988976026047603e-01 3.1553436853581635e-01 8.6332851785088094e-01  7.3349594908477711e-01 3.2371878144456989e-01 8.6239069051673334e-01  7.3629484446778193e-01 3.3026914003234153e-01 8.6127848232461246e-01  7.3828097520777380e-01 3.3503023060604697e-01 8.6027619343848261e-01  7.3945442237165060e-01 3.3789542476064771e-01 8.5959318618541602e-01  7.3943936988907732e-01 3.3783978786360058e-01 8.5961742851113421e-01  7.3827686576178342e-01 3.3489937307879014e-01 8.6037595075609508e-01  7.3640162561367650e-01 3.3016831754129450e-01 8.6151261321469075e-01  7.3386146440668354e-01 3.2382231234300862e-01 8.6285037696292621e-01  7.3078017978518472e-01 3.1622971437971881e-01 8.6416224513643536e-01  7.2731506875208385e-01 3.0784836615595834e-01 8.6521620755462958e-01  7.2362458875261981e-01 2.9912960118326787e-01 8.6584151022091804e-01  7.1993777364548672e-01 2.9066441801153903e-01 8.6594686052757763e-01  7.1658773770301576e-01 2.8327411387373974e-01 8.6552831411410347e-01  7.1589473222091171e-01 2.8329275060711151e-01 8.6433649429760040e-01  7.1841443699203256e-01 2.9021380624713183e-01 8.6369901131158433e-01  7.2096916312608761e-01 2.9772681669975043e-01 8.6244988874450856e-01  7.2337768019162685e-01 3.0526605162453135e-01 8.6071042438077916e-01  7.2536028044143519e-01 3.1193269132167989e-01 8.5874587943827552e-01  7.2718158465063187e-01 3.1914593075241382e-01 8.5579607763851318e-01  7.2863562820949790e-01 3.2581742259362600e-01 8.5242476473775519e-01  7.3089897214745059e-01 3.3675538496146556e-01 8.4636669505855200e-01  7.4006424925958758e-01 3.8583429163342120e-01 8.1415650699318021e-01  7.4410719077824183e-01 4.1163042201488681e-01 7.9375449664698527e-01  7.4762043320541882e-01 4.3796467570009945e-01 7.7034071929669656e-01  7.5071126473812466e-01 4.6591764066452274e-01 7.4286806493483670e-01  7.5333007690448239e-01 4.9598049065813155e-01 7.1052949119423114e-01  7.5537083267170324e-01 5.2848187003079039e-01 6.7258086337645762e-01  7.5668459204936145e-01 5.6418774208661759e-01 6.2757465810648294e-01  7.5618513893520511e-01 6.4744035533262712e-01 5.1099409645582250e-01  7.5476901821955855e-01 6.7550697919056568e-01 4.6806422969594963e-01  7.5309207936259548e-01 6.9677153591705610e-01 4.3404020033335416e-01  7.5147811752791172e-01 7.1201303520329617e-01 4.0873924168833864e-01  7.4928588972046917e-01 7.2612762046200441e-01 3.8398136856763643e-01  7.4736719968281562e-01 7.3487229397691867e-01 3.6763965145506222e-01  7.4497147039912437e-01 7.4432593624540455e-01 3.4940255933443215e-01  7.4230466676235740e-01 7.5357081526230008e-01 3.3100095336705870e-01  7.3961852902279845e-01 7.6180494498204854e-01 3.1407609765334238e-01  7.3710073585693003e-01 7.6870064916486380e-01 2.9944795899441928e-01  7.3494906590767395e-01 7.7400167032421885e-01 2.8784350313870871e-01  7.3333982314518520e-01 7.7751443111792840e-01 2.7985616807200958e-01  7.3238214672018598e-01 7.7918982311684015e-01 2.7574597859624217e-01  7.3261598529868754e-01 7.7674044139830511e-01 2.7993182693462726e-01  7.3396914579656514e-01 7.7147010917085068e-01 2.9025259756724608e-01  7.3605319566632121e-01 7.6297775141997559e-01 3.0669391946240959e-01  7.3867807733973334e-01 7.5064676688690835e-01 3.2985218964744895e-01  7.4152061686484838e-01 7.3409380654351730e-01 3.5970619488994832e-01  7.4419950256358947e-01 7.1284784354513075e-01 3.9619369548896255e-01  7.4626234174925787e-01 6.8648804142806552e-01 4.3892519818390541e-01  7.4722808692950127e-01 6.5479914150891405e-01 4.8696084332518208e-01  7.4663167043659118e-01 6.1788149538074677e-01 5.3868186600066426e-01  7.4399140349629644e-01 5.7580854723971242e-01 5.9215568428362897e-01  7.3892578553950372e-01 5.2922384759673613e-01 6.4452701332964035e-01  7.3115791379801354e-01 4.7923280071436913e-01 6.9224385119762466e-01  7.2039831862788817e-01 4.2686823351625625e-01 7.3155659566998321e-01  7.0669691859566197e-01 3.7462951829359403e-01 7.5745270126974096e-01  6.9021331257909835e-01 3.2421184923221463e-01 7.6674929256779001e-01  6.5252773815384413e-01 2.4026307642414590e-01 7.3052398424368203e-01  6.3358358188232544e-01 2.1024380654097435e-01 6.8989025623128419e-01  6.1522752145823589e-01 1.8741941370064913e-01 6.3952810534917237e-01  5.9804510597501159e-01 1.7186944438317059e-01 5.8313160992534585e-01  5.8251493418883171e-01 1.6278257649656327e-01 5.2540084831021572e-01  5.6867076895855728e-01 1.5974081356117917e-01 4.6835926427846664e-01  5.5626215089896058e-01 1.6309167115904610e-01 4.1182515425392857e-01  5.3548511766085294e-01 1.9639482072896106e-01 2.9621895333932896e-01  5.3180349251188552e-01 2.1829725296537633e-01 2.6364224996903668e-01  5.3091342663105467e-01 2.4219559422274745e-01 2.4126646719457046e-01  5.3210439636041329e-01 2.6782397820402709e-01 2.2591961698804042e-01  5.3491492793625417e-01 2.9453073227675119e-01 2.1591092452876937e-01  5.3896857222518402e-01 3.2143088032406253e-01 2.1021168320230793e-01  5.4383393122822787e-01 3.4730890621041899e-01 2.0798171843827626e-01  5.4893099121959010e-01 3.7042042614072918e-01 2.0840124154715636e-01  5.5698455749502185e-01 4.0010723162521816e-01 2.1370371535386748e-01  5.6312869009005806e-01 4.1919427967967027e-01 2.1998289349857628e-01  5.7107881908021985e-01 4.4212809242303813e-01 2.2879871646683214e-01  5.9395805791590239e-01 5.0365961728822184e-01 2.5324063610736836e-01  6.0351084947617639e-01 5.2858382156263084e-01 2.6175751370218381e-01  6.1148618808729638e-01 5.4951009930040418e-01 2.6734667091028891e-01  6.1794222634316021e-01 5.6715610754920642e-01 2.7006358937587799e-01  6.2270492247804599e-01 5.8173970426218569e-01 2.6959769778337073e-01  6.2553860549295082e-01 5.9279179132995286e-01 2.6618095829706989e-01  6.2612478699791951e-01 6.0029810978881581e-01 2.5914883071841777e-01  6.1647921137693262e-01 5.9887972176656024e-01 2.2780257101251733e-01  6.0848514563517564e-01 5.8865822845659288e-01 2.1199612126883036e-01  5.9936774984825048e-01 5.7351274312226352e-01 1.9703660087923913e-01  5.8941815784052132e-01 5.5403172128038414e-01 1.8272515257226352e-01  5.7896858282199470e-01 5.3092053767495739e-01 1.6904962426213210e-01  5.6834860674224674e-01 5.0502816711181775e-01 1.5606757067112612e-01  5.5787568794923070e-01 4.7732795078229667e-01 1.4389125507706446e-01  5.4785867642844266e-01 4.4894715013707798e-01 1.3267333979156629e-01  5.3857830815259600e-01 4.2110462036552693e-01 1.2257566627109034e-01  5.3029837694327719e-01 3.9505854453610029e-01 1.1377048827664524e-01  5.2323464791898855e-01 3.7198262252752251e-01 1.0639741258644651e-01  5.1758595374356098e-01 3.5298322595451148e-01 1.0058681645727437e-01  5.1349376225291854e-01 3.3893027732055048e-01 9.6421301317055647e-02  5.1102848800701939e-01 3.3035141878258822e-01 9.3928940244540265e-02  5.1031650918714988e-01 3.2770435687543525e-01 9.3321213625460794e-02  5.1041725513335234e-01 3.2752842771298835e-01 9.3800822532742537e-02  5.1042015111638239e-01 3.2662092382582036e-01 9.4455527760036767e-02  5.1027179406179490e-01 3.2476692157865861e-01 9.5244625339647518e-02  5.0970384040501104e-01 3.2091621295520334e-01 9.5951598954895578e-02  5.0738107023199341e-01 3.0817706361025565e-01 9.6718718764414333e-02  5.0487444775839407e-01 2.9982294664092568e-01 9.3582693722989677e-02  5.0262791477540414e-01 2.9155372516391453e-01 9.1303741858421814e-02  5.0097092419204015e-01 2.8525050899331961e-01 8.9744530953615745e-02  4.9992966225949181e-01 2.8122433738686498e-01 8.8800244079776200e-02  5.0002956616630878e-01 2.8161324707140190e-01 8.8889538598804788e-02  5.0143039333485562e-01 2.8702579291215213e-01 9.0160099449588874e-02  5.0375874000599707e-01 2.9591512795066988e-01 9.2310850530138280e-02  5.1131784429680238e-01 3.1433906753377411e-01 1.0671909671560059e-01  5.1162776872135496e-01 3.0977414126327163e-01 1.1125795739282054e-01  5.1166135238403421e-01 3.0297230213706355e-01 1.1642658316407369e-01  5.1167366038274653e-01 2.9438862702455892e-01 1.2283553342564282e-01  5.1182654932618765e-01 2.8412907724584119e-01 1.3102404160428485e-01  5.1227952402472410e-01 2.7226403398153104e-01 1.4158003817823395e-01  5.1319987513924081e-01 2.5870304709108377e-01 1.5527171838457610e-01  5.1479727634476036e-01 2.4321495194345294e-01 1.7318384233605480e-01  5.1749120582363095e-01 2.2543563073796405e-01 1.9740118228989031e-01  5.2961222203529446e-01 1.8203760090559054e-01 2.8050905297901241e-01  5.3759568492579557e-01 1.6835263879030865e-01 3.2489985470341004e-01  5.4741226386599284e-01 1.5951431474083574e-01 3.7392102994703619e-01  5.5945123195816926e-01 1.5551728008413734e-01 4.2896840556217308e-01  5.7392949920281844e-01 1.5666741103980042e-01 4.9006506647838849e-01  5.9087112909572259e-01 1.6360991507193906e-01 5.5557958433508481e-01  6.1004257281801999e-01 1.7705152522692183e-01 6.2213240067382547e-01  6.3088442011885415e-01 1.9756274353005424e-01 6.8472553594949792e-01  6.5248919789022475e-01 2.2513088076507676e-01 7.3770899937602719e-01  6.7364276404811640e-01 2.5873678276022055e-01 7.7612941207302899e-01  6.9301644725779044e-01 2.9586955907460888e-01 7.9795692441442967e-01  7.0923845754060677e-01 3.3238519660071014e-01 8.0484697129033045e-01  7.2916117209590769e-01 3.8877245810784072e-01 7.9072987647858395e-01  7.4046200125481265e-01 4.2947504038947737e-01 7.6649234520766962e-01  7.5174639991700609e-01 4.7719855717205628e-01 7.2910688379000876e-01  7.6272298075160261e-01 5.3304245919932236e-01 6.7523887882710243e-01  7.8149294264567726e-01 6.5301936405538030e-01 5.3605067971584031e-01  7.8341905405941592e-01 6.6621710427464353e-01 5.1928174830912510e-01  7.8417299144182806e-01 6.7131557922212548e-01 5.1264955083552088e-01  7.8418787538948742e-01 6.7141943788813607e-01 5.1251192847233906e-01  7.8367460517292575e-01 6.6822373650643285e-01 5.1665169441530578e-01  7.8311973720298489e-01 6.6582076678125646e-01 5.1951725313437969e-01  7.8301291820715979e-01 6.6880509505414543e-01 5.1488599214037678e-01  7.8418487857598373e-01 6.9385085164585070e-01 4.7839135480500383e-01  7.8460441936872438e-01 7.0565959750199025e-01 4.6075116981800102e-01  7.8484272775361663e-01 7.1449964109271968e-01 4.4734977572320100e-01  7.8495047324871736e-01 7.2006435489656573e-01 4.3881714054429927e-01  7.8497492465249763e-01 7.2186911293941369e-01 4.3602977301915313e-01  7.8494644495507082e-01 7.2047800873602685e-01 4.3816664452746168e-01  7.8484586110819055e-01 7.1648492522491825e-01 4.4426635872492926e-01  7.8458493975577970e-01 7.1001384933836897e-01 4.5399834232895031e-01  7.8359534784365603e-01 7.0962695322459612e-01 4.5345076961941316e-01  7.8328987552066520e-01 7.1902870050602574e-01 4.3851811277951053e-01  7.8289958474491173e-01 7.2712233593475772e-01 4.2544124369082992e-01  7.8247687596041782e-01 7.3349575205804862e-01 4.1496584987686352e-01  7.8210545800320619e-01 7.3798665275015252e-01 4.0747756561585458e-01  7.8171245432860181e-01 7.4139256789611008e-01 4.0165739015650104e-01  7.8142995233281431e-01 7.4293593475469133e-01 3.9889520060929556e-01  7.8109050871