<?xml version="1.0"?>
<VTKFile type="UnstructuredGrid"  version="0.1"  >
<UnstructuredGrid>
<Piece  NumberOfPoints="7288" NumberOfCells="14083">
<Points>
<DataArray  type="Float64"  NumberOfComponents="3"  format="ascii">239.8 188 0  250.2 180 0  258.2 172.4 0  257 169.4 0  259.9 157.4 0  258.7 150.3 0  261 143.5 0  251.7 144.4 0  250 138.7 0  247 138.1 0  245.2 130.8 0  247.3 126.4 0  242.7 118.6 0  231.2 107.7 0  226 102.4 0  226.5 93.90000000000001 0  224.5 91.19999999999999 0  224.5 84.09999999999999 0  234.5 73.80000000000001 0  228.4 68.90000000000001 0  230 70 0  233.4 68 0  222.7 61.5 0  220.6 45.5 0  223.4 49.40000000000001 0  224 47 0  221.8 43.09999999999999 0  221 38.40000000000001 0  219.5 38.5 0  219.4 41.69999999999999 0  217.1 36.90000000000001 0  209.7 36 0  209.5 31.69999999999999 0  205.1 29.90000000000001 0  201.5 30.40000000000001 0  199.2 38.69999999999999 0  201.8 41.40000000000001 0  194.8 53.80000000000001 0  196.1 57.69999999999999 0  193 59 0  191.4 66.09999999999999 0  193.5 66.5 0  194.1 64.40000000000001 0  195.6 64.69999999999999 0  195.4 72.40000000000001 0  199.5 77.30000000000001 0  197.7 86.90000000000001 0  200.6 87.5 0  201.5 91 0  198 94.80000000000001 0  198.6 100 0  197.3 105.4 0  198 109.5 0  197 112.7 0  198.3 116.1 0  201.3 122 0  207.2 121 0  208.1 126.7 0  205.6 127.9 0  209.1 134.9 0  210.9 144.4 0  210.1 147.9 0  213 148.4 0  215.4 149.3 0  215.1 152.8 0  219.9 159.7 0  220.3 163.2 0  218.7 164.9 0  219.9 166.7 0  221.9 169.7 0  220 170.3 0  224.9 174.7 0  229.8 177.4 0  229.7 181 0  228 172.9 0  239 178 0  240.4 180 0  239 181.5 0  241.2 185.9 0  242.95 187.99 0  240.5875 187.9975 0  241.375 187.995 0  242.1625 187.9925 0  243.6090909090879 187.2636363636397 0  244.2681818181765 186.5372727272785 0  244.9272727272692 185.810909090913 0  245.5863636363531 185.0845454545571 0  246.245454545445 184.3581818181923 0  246.9045454545351 183.6318181818295 0  247.5636363636303 182.9054545454612 0  248.2227272727197 182.1790909090992 0  248.8818181818179 181.4527272727275 0  249.5409090909066 180.7263636363664 0  250.8666666666961 179.3666666666387 0  251.5333333334033 178.7333333332668 0  252.2000000000994 178.0999999999055 0  252.8666666668011 177.466666666539 0  253.5333333335083 176.8333333331671 0  254.2000000002044 176.1999999998058 0  254.8666666669005 175.5666666664445 0  255.5333333336077 174.9333333330727 0  256.2000000002685 174.2999999997449 0  256.8666666668457 173.6666666664966 0  257.5333333334283 173.033333333243 0  257.9000000000077 171.6500000000191 0  257.6000000000015 170.9000000000038 0  257.2999999999954 170.1499999999885 0  257.2230769230778 168.4769230769195 0  257.4461538461543 167.5538461538442 0  257.6692307692309 166.6307692307688 0  257.8923076923074 165.7076923076935 0  258.115384615384 164.7846153846181 0  258.3384615384605 163.8615384615427 0  258.5615384615395 162.9384615384572 0  258.784615384616 162.0153846153819 0  259.0076923076926 161.0923076923065 0  259.2307692307691 160.1692307692311 0  259.4538461538457 159.2461538461558 0  259.6769230769222 158.3230769230804 0  259.750000000001 156.512500000006 0  259.6000000000014 155.6250000000082 0  259.4500000000029 154.7375000000176 0  259.3000000000018 153.8500000000108 0  259.1500000000007 152.962500000004 0  259.0000000000004 152.0750000000026 0  258.849999999999 151.187499999994 0  258.9875000000052 149.4499999999846 0  259.275000000002 148.5999999999941 0  259.5624999999954 147.7500000000135 0  259.849999999995 146.900000000015 0  260.1374999999945 146.0500000000164 0  260.4249999999913 145.2000000000259 0  260.7124999999948 144.3500000000154 0  260.0700000000398 143.5899999999961 0  259.1400000000573 143.6799999999944 0  258.2100000000351 143.7699999999966 0  257.2800000000262 143.8599999999975 0  256.350000000011 143.9499999999989 0  255.4199999999881 144.0400000000011 0  254.4899999999726 144.1300000000026 0  253.5599999999944 144.2200000000005 0  252.6300000000009 144.3099999999999 0  251.4166666666658 143.4499999999971 0  251.1333333333388 142.5000000000182 0  250.8500000000015 141.5500000000051 0  250.5666666666612 140.5999999999818 0  250.2833333333342 139.6500000000029 0  249.2500000000005 138.5500000000001 0  248.5000000000011 138.4000000000002 0  247.7499999999995 138.2499999999999 0  246.7750000000005 137.1875000000023 0  246.5500000000021 136.2750000000085 0  246.3250000000036 135.3625000000147 0  246.1000000000042 134.450000000017 0  245.8750000000022 133.5375000000088 0  245.650000000003 132.6250000000124 0  245.4250000000046 131.7125000000187 0  245.619999999996 129.9200000000084 0  246.0399999999992 129.0400000000017 0  246.4599999999987 128.1600000000028 0  246.8800000000001 127.2799999999997 0  246.8399999999988 125.6199999999979 0  246.3799999999984 124.8399999999973 0  245.9199999999991 124.0599999999985 0  245.4600000000036 123.2800000000062 0  245.0000000000049 122.5000000000082 0  244.5400000000036 121.7200000000062 0  244.0800000000033 120.9400000000056 0  243.6200000000016 120.1600000000027 0  243.1600000000012 119.3800000000021 0  241.9812499999996 117.9187499999997 0  241.2625000000007 117.2375000000007 0  240.5437500000017 116.5562500000017 0  239.8250000000041 115.875000000004 0  239.1062500000066 115.1937500000063 0  238.3875000000076 114.5125000000072 0  237.6687500000087 113.8312500000082 0  236.9500000000083 113.1500000000079 0  236.231250000008 112.4687500000076 0  235.512500000009 111.7875000000085 0  234.7937500000045 111.1062500000043 0  234.0750000000042 110.4250000000039 0  233.3562500000066 109.7437500000062 0  232.6375000000021 109.062500000002 0  231.9187500000031 108.381250000003 0  230.5500000000004 107.0375000000004 0  229.9000000000021 106.3750000000021 0  229.2500000000038 105.7125000000039 0  228.6000000000041 105.0500000000042 0  227.9500000000018 104.3875000000018 0  227.2999999999952 103.7249999999951 0  226.6500000000024 103.0625000000024 0  226.0555555555555 101.4555555555556 0  226.1111111111111 100.5111111111111 0  226.1666666666667 99.56666666666668 0  226.2222222222222 98.62222222222223 0  226.2777777777778 97.67777777777778 0  226.3333333333333 96.73333333333335 0  226.3888888888889 95.78888888888889 0  226.4444444444445 94.84444444444446 0  226 93.22499999999999 0  225.5000000000026 92.55000000000358 0  225.0000000000026 91.87500000000358 0  224.5 90.31250000000068 0  224.5 89.4250000000097 0  224.5 88.53750000001317 0  224.5 87.65000000001388 0  224.5 86.76250000001457 0  224.5 85.87500000001248 0  224.5 84.9874999999993 0  225.1666666666659 83.41333333333409 0  225.8333333333319 82.72666666666818 0  226.4999999999978 82.04000000000228 0  227.1666666666649 81.35333333333514 0  227.8333333333301 80.66666666667 0  228.4999999999942 79.980000000006 0  229.1666666666601 79.2933333333401 0  229.8333333333316 78.60666666666847 0  230.4999999999975 77.92000000000257 0  231.1666666666644 77.23333333333572 0  231.8333333333295 76.54666666667057 0  232.4999999999972 75.86000000000287 0  233.1666666666681 75.17333333333181 0  233.8333333333368 74.48666666666306 0  233.7499999999995 73.16666666666629 0  233.0000000000018 72.53333333333488 0  232.2500000000014 71.90000000000116 0  231.5000000000009 71.26666666666743 0  230.7500000000005 70.63333333333372 0  229.233333333333 68.75000000000006 0  230.0666666666665 68.60000000000004 0  230.8999999999995 68.45000000000009 0  231.7333333333325 68.30000000000015 0  232.566666666667 68.14999999999995 0  232.5499999999897 68.50000000000607 0  231.7 69 0  230.8500000000103 69.49999999999393 0  227.8300000000008 68.16000000000106 0  227.2600000000064 67.42000000000837 0  226.6900000000077 66.68000000001001 0  226.1200000000024 65.94000000000314 0  225.5500000000108 65.20000000001409 0  224.9800000000098 64.46000000001268 0  224.4100000000007 63.72000000000098 0  223.8399999999971 62.97999999999621 0  223.2699999999993 62.23999999999915 0  222.753846153846 60.56923076923239 0  222.8076923076921 59.63846153846478 0  222.8615384615381 58.70769230769827 0  222.9153846153842 57.77692307693071 0  222.9692307692302 56.84615384616315 0  223.0230769230761 55.91538461539836 0  223.0769230769224 54.98461538462665 0  223.1307692307688 54.05384615385345 0  223.184615384615 53.12307692308312 0  223.2384615384611 52.19230769231556 0  223.2923076923071 51.26153846154906 0  223.3461538461533 50.33076923077847 0  222.8400000000024 48.62000000000327 0  222.2800000000047 47.84000000000661 0  221.7200000000005 47.06000000000071 0  221.1600000000003 46.28000000000039 0  221.4500000000116 45.87500000000512 0  222.3 46.25 0  223.1499999999884 46.62499999999488 0  223.5600000000055 46.22000000000981 0  223.1199999999987 45.43999999999767 0  222.6800000000061 44.66000000001075 0  222.2399999999969 43.8799999999944 0  221.6400000000004 42.16000000000253 0  221.4800000000009 41.22000000000548 0  221.3200000000014 40.28000000000801 0  221.1600000000009 39.34000000000556 0  220.25 38.45 0  219.4749999999999 39.30000000000165 0  219.45 40.09999999999999 0  219.425 40.90000000000112 0  219.0166666666641 40.89999999999463 0  218.6333333333375 40.10000000000875 0  218.2500000000016 39.30000000000339 0  217.8666666666635 38.49999999999351 0  217.483333333337 37.70000000000762 0  216.1750000000165 36.78750000000201 0  215.2500000000275 36.67500000000335 0  214.3250000000385 36.56250000000469 0  213.4000000000277 36.45000000000337 0  212.4750000000059 36.33750000000072 0  211.5499999999838 36.22499999999803 0  210.6249999999835 36.11249999999799 0  209.6600000000001 35.14000000000318 0  209.6200000000001 34.28000000000268 0  209.5800000000001 33.42000000000284 0  209.5399999999998 32.55999999999681 0  208.6200000000117 31.34000000000476 0  207.7400000000138 30.98000000000564 0  206.8600000000162 30.62000000000662 0  205.9800000000174 30.26000000000711 0  204.2000000000054 30.02499999999925 0  203.2999999999946 30.15000000000076 0  202.3999999999945 30.27500000000076 0  201.2444444444438 31.32222222222468 0  200.9888888888895 32.24444444
[...]
<PointData  Vectors="f_12"> 
<DataArray  type="Float64"  Name="f_12"  NumberOfComponents="3" format="ascii">7.9304324858662378e-01 5.3840423035881646e-01 7.0612755479325684e-01  7.9149211826521360e-01 5.2812549747793180e-01 7.1765227305626478e-01  7.8930197942658598e-01 5.1454244018447615e-01 7.3241839670778486e-01  7.8845637820887915e-01 5.0964822704623514e-01 7.3758105474125302e-01  7.8227077158872527e-01 4.7654229571057061e-01 7.7071322252495489e-01  7.7676729673586398e-01 4.5153134429491970e-01 7.9322492900924924e-01  7.7535402097645745e-01 4.4494367786331840e-01 7.9895791269137229e-01  7.4945370141595691e-01 3.6218588778904631e-01 8.4875243496914998e-01  6.9533797222037819e-01 2.3323220179906334e-01 8.5437099899671665e-01  6.5678895025297901e-01 1.7642058259722429e-01 7.8192456973056890e-01  5.4086747897997167e-01 8.7089454485402590e-02 3.8718706536052377e-01  5.1688940653218829e-01 8.3928696544649822e-02 2.8454642376805339e-01  4.9453153973005826e-01 1.0750641870654327e-01 1.7715392409490571e-01  4.9910666143389310e-01 2.6447083876192534e-01 9.5788061564409180e-02  5.6797544836089509e-01 5.1512861274832578e-01 1.4181654648798811e-01  6.8434322758151522e-01 6.7187520752889751e-01 3.3247241960619633e-01  7.1028604764378489e-01 6.0352729044879305e-01 4.8673560579866759e-01  6.7580579028677901e-01 2.6376414936879528e-01 7.8577410618791954e-01  5.9638487450187294e-01 1.1580538654651351e-01 6.1948996788434552e-01  5.4084196931401207e-01 1.3603871707899970e-01 3.6254006041968878e-01  5.5005945623830488e-01 1.1847107234385457e-01 4.1510139264131563e-01  5.3968172495315458e-01 1.0505994974314234e-01 3.8065293727251509e-01  5.8144042128890960e-01 3.5659151442290432e-01 3.5510585971334074e-01  7.4753710674381402e-01 4.9816066408802401e-01 6.9823505523597729e-01  6.8674895345567311e-01 3.2785498820438980e-01 7.6150064612995494e-01  7.6303014295399363e-01 5.4237873161368744e-01 6.6851150754763722e-01  7.6409989452287086e-01 5.6010611113941811e-01 6.4592461018954128e-01  7.7592721443574775e-01 6.1489526200998545e-01 5.8604870556988242e-01  7.7587857678459926e-01 6.1477773736502017e-01 5.8615242098641096e-01  7.6768564484389357e-01 5.9268008770417746e-01 6.0638323162932706e-01  7.6561284450774225e-01 6.6778246738311886e-01 4.9574190455635464e-01  7.2431719937532624e-01 7.3127326887363631e-01 3.3214219019954039e-01  6.9082114981460030e-01 7.6037007371255405e-01 2.2458527948148729e-01  6.7853292885077499e-01 7.6385732194678824e-01 1.9283465308741232e-01  6.7612682387805223e-01 7.6445951605256912e-01 1.8655970581588921e-01  7.0477911507611812e-01 7.5640324650621860e-01 2.5965221335187727e-01  7.2525628076709647e-01 7.2246149240269730e-01 3.4936115425649467e-01  6.5975604081626615e-01 5.8518307793757585e-01 3.8176055931544928e-01  5.9861397938866867e-01 4.9178004825038435e-01 2.7879614231853567e-01  5.5877097085795191e-01 4.1626728914833583e-01 2.0554116640932374e-01  5.0212218718300916e-01 1.3820022831946330e-01 1.9294203251351513e-01  5.0490966109485580e-01 1.5018337178704702e-01 1.9652047892553787e-01  5.3357747504267616e-01 3.1304771224645717e-01 1.9400836490822229e-01  5.2494067475385287e-01 2.6200437317212344e-01 1.9822865486540658e-01  5.1154475551971790e-01 1.1619743881479934e-01 2.4676515594493764e-01  5.7505261161912713e-01 1.3142967345711290e-01 5.1182281662318507e-01  7.2557205521298562e-01 3.8428050101513495e-01 7.9337453973297578e-01  7.2715547973536387e-01 4.2873201162125413e-01 7.4533819194358764e-01  7.1643036788596770e-01 5.9919395221687166e-01 5.0442388803933802e-01  6.6982417526701510e-01 6.8818904967255268e-01 2.7367552221009844e-01  6.1182389897467315e-01 6.2754170686793098e-01 1.7563026969622297e-01  5.4718065291354390e-01 4.7019514249603250e-01 1.1154252704019454e-01  5.1553213706302592e-01 3.5044804033938337e-01 9.4055504456077632e-02  4.9942530656034489e-01 2.7894311149147555e-01 8.7528110102065945e-02  4.9125941994388345e-01 2.3577926641153099e-01 8.6891257603460073e-02  4.8419249417453114e-01 1.9043326483623832e-01 8.9893952139010538e-02  4.8547424556751573e-01 1.7543747940606472e-01 1.0315554003141798e-01  4.9041034033893127e-01 1.1811592625198700e-01 1.5493748888869363e-01  4.9223604656948028e-01 1.0809216368501419e-01 1.6774576813804898e-01  5.1167674658575546e-01 9.1840726870500683e-02 2.5729682332795267e-01  6.0022456854843831e-01 1.1150818197766102e-01 6.2577397131675827e-01  6.2237311541234452e-01 1.2633378646095714e-01 7.0476302984085160e-01  6.3217566423793170e-01 1.3783873202870134e-01 7.3165235671993223e-01  6.6765502433825530e-01 1.8716420553003710e-01 8.0970687388431217e-01  7.1343252508144028e-01 2.6781762730286757e-01 8.6814659885524115e-01  7.6573418681614114e-01 4.1208818987017171e-01 8.2242403547621656e-01  7.7885822290520168e-01 4.6222688340148194e-01 7.8343127391049339e-01  7.8170572820242246e-01 4.7434860571702331e-01 7.7269513323587102e-01  7.8298390653558692e-01 4.8023165553520325e-01 7.6718785715695159e-01  7.8491969256796579e-01 4.8958857914712234e-01 7.5817795684469447e-01  7.8461299046294919e-01 4.8795582037314122e-01 7.5980437927297595e-01  7.8695168966869000e-01 5.0030055198536971e-01 7.4743350584946622e-01  7.8972961112439366e-01 5.1665408181390104e-01 7.3022963224704418e-01  7.9009794242842357e-01 5.1885420306207508e-01 7.2786960162433822e-01  7.8761222704080025e-01 5.0423048761076383e-01 7.4333502930154838e-01  7.9080720784077052e-01 5.2366289937837451e-01 7.2257473609555223e-01  7.9192227680067373e-01 5.3093333045055258e-01 7.1452640018058222e-01  7.9237585940753663e-01 5.3392125055551121e-01 7.1118847633286109e-01  7.9291817658912167e-01 5.3755736495685191e-01 7.0708746734159422e-01  7.9299014985380167e-01 5.3804355618020738e-01 7.0653683644565801e-01  7.9303669172701940e-01 5.3835970960503809e-01 7.0617807956213641e-01  7.9302224225628859e-01 5.3826155708693768e-01 7.0628947354000016e-01  7.9300528530331005e-01 5.3814634073077450e-01 7.0642022643235514e-01  7.9295231556056911e-01 5.3778710029960697e-01 7.0682756880877440e-01  7.9288363988405941e-01 5.3732229671893905e-01 7.0735407760520475e-01  7.9279262025922170e-01 5.3670767395272234e-01 7.0804945908751715e-01  7.9268260557958170e-01 5.3596705969178304e-01 7.0888607366517908e-01  7.9255517694546984e-01 5.3511240071811306e-01 7.0984972930283186e-01  7.9241245113330416e-01 5.3415938367491844e-01 7.1092195319269247e-01  7.9225443379109484e-01 5.3310959371832944e-01 7.1210019650529344e-01  7.9208300437234269e-01 5.3197706303915515e-01 7.1336793343218585e-01  7.9189975060761042e-01 5.3077393689869634e-01 7.1471074379008082e-01  7.9170332375507402e-01 5.2949301164487927e-01 7.1613588780126447e-01  7.9128830599213307e-01 5.2681496063909017e-01 7.1910067029215952e-01  7.9108577387557133e-01 5.2552191414027183e-01 7.2052491176866729e-01  7.9088035428505044e-01 5.2422013600018236e-01 7.2195384354318726e-01  7.9067265720127777e-01 5.2291374571513138e-01 7.2338287016061875e-01  7.9046443621005347e-01 5.2161398907192824e-01 7.2479962116158214e-01  7.9025793937731004e-01 5.2033461709576245e-01 7.2618928975893182e-01  7.9005419615922123e-01 5.1908193549503456e-01 7.2754520699450154e-01  7.8985712924358586e-01 5.1787932856734187e-01 7.2884249593034478e-01  7.8967220795805049e-01 5.1675904668693406e-01 7.3004700092657315e-01  7.8950661573769509e-01 5.1576281541261937e-01 7.3111487995443958e-01  7.8937364423047474e-01 5.1496809719510117e-01 7.3196442470774448e-01  7.8922960830388900e-01 5.1411925568121231e-01 7.3286752797620847e-01  7.8907121443473738e-01 5.1319710854278777e-01 7.3384407307564736e-01  7.8883049359048596e-01 5.1180270391064342e-01 7.3531610518836110e-01  7.8795914682494728e-01 5.0680581560448967e-01 7.4055285811207883e-01  7.8750306441636786e-01 5.0422376252963008e-01 7.4323393274880445e-01  7.8704742139869643e-01 5.0167061386013478e-01 7.4586611250371559e-01  7.8658464231778924e-01 4.9910466162531891e-01 7.4849235746863729e-01  7.8611324896703738e-01 4.9651912254237329e-01 7.5111900561387202e-01  7.8563348599933891e-01 4.9391685717741357e-01 7.5374251129200609e-01  7.8514646065220972e-01 4.9130544909562762e-01 7.5635461449850294e-01  7.8465353567631391e-01 4.8869342270352517e-01 7.5894656126841475e-01  7.8415734769558232e-01 4.8609654563315302e-01 7.6150219706853084e-01  7.8365839326047404e-01 4.8351946574578830e-01 7.6401686608861641e-01  7.8316491029574564e-01 4.8100434072679665e-01 7.6645030626293997e-01  7.8268643091917767e-01 4.7860016154483359e-01 7.6875628917755234e-01  7.8184041011406302e-01 4.7445393751783099e-01 7.7267854079899678e-01  7.8130041432278663e-01 4.7187444862896805e-01 7.7508342815701592e-01  7.8068515939598038e-01 4.6898308703373892e-01 7.7775071811297725e-01  7.8000727766005029e-01 4.6585340876842835e-01 7.8060398387735885e-01  7.7927414079920698e-01 4.6252876821739286e-01 7.8359637808097815e-01  7.7849428681626320e-01 4.5905294928244889e-01 7.8668301487434733e-01  7.7766723755101075e-01 4.5542659706828015e-01 7.8985888674902549e-01  7.7609121265522896e-01 4.4857569319317986e-01 7.9576704444860458e-01  7.7563839975636539e-01 4.4659074693866507e-01 7.9746268413414845e-01  7.7538174950187200e-01 4.4542260551444929e-01 7.9846614626657508e-01  7.7525032558840956e-01 4.4477930981155367e-01 7.9902717999393169e-01  7.7522382134620305e-01 4.4457373825299762e-01 7.9922239867153577e-01  7.7526165017181681e-01 4.4464620733821508e-01 7.9918344986532719e-01  7.7532219111484069e-01 4.4483530000844329e-01 7.9904195934781097e-01  7.7528320449154731e-01 4.4468847559790881e-01 7.9915957119943748e-01  7.7501184120828714e-01 4.4370460089397196e-01 7.9993624482654080e-01  7.7447340985677926e-01 4.4175323549803408e-01 8.0146626516956387e-01  7.7360751071682254e-01 4.3863748550973880e-01 8.0387618134566063e-01  7.7231915618878644e-01 4.3406055460613890e-01 8.0733830983140498e-01  7.7049798139790959e-01 4.2771131066079887e-01 8.1198466633477950e-01  7.6797636644950318e-01 4.1914887672242884e-01 8.1794669942845166e-01  7.6445662856496144e-01 4.0760326801139407e-01 8.2541006700855968e-01  7.5921839334046382e-01 3.9117644318823230e-01 8.3485698986942891e-01  7.3658071997986319e-01 3.2656911754854356e-01 8.6115399078469412e-01  7.2639873143322953e-01 3.0049681802534073e-01 8.6616882142604157e-01  7.1674990419271245e-01 2.7767863462206432e-01 8.6669906137331332e-01  7.0782069383839663e-01 2.5808941888636655e-01 8.6382125951381328e-01  7.0017292238781059e-01 2.4242375513043626e-01 8.5893934265281136e-01  6.9208644969490229e-01 2.2771641473297555e-01 8.4995369581753477e-01  6.8502942905566278e-01 2.1636303947144953e-01 8.3897976330384294e-01  6.7426739944755543e-01 2.0031380784240546e-01 8.1925826555638626e-01  6.3301496099077992e-01 1.4775491320017969e-01 7.2198553000078758e-01  6.1525772978911619e-01 1.2955789996326866e-01 6.6977779570189033e-01  5.9992319952576867e-01 1.1637824342275571e-01 6.1920504896141637e-01  5.8625341986452850e-01 1.0663104919933875e-01 5.7014452628381618e-01  5.7393030944436163e-01 9.9454217161556002e-02 5.2304993624264251e-01  5.6266061472202256e-01 9.4173430549186893e-02 4.7799988520004738e-01  5.5204569034194373e-01 9.0256701300022571e-02 4.3421568115378956e-01  5.3163110696589577e-01 8.5054542109891398e-02 3.4798231286928999e-01  5.2570945483259635e-01 8.4104997242034088e-02 3.2272483847035704e-01  5.2147209196121280e-01 8.3732786889513036e-02 3.0452874225541599e-01  5.1850242138066627e-01 8.3737556685933259e-02 2.9164793673763140e-01  5.1554994946566257e-01 8.4448719620299179e-02 2.7843197259001629e-01  5.1343267219502620e-01 8.5562993149855937e-02 2.6861751420076280e-01  5.1095318543619106e-01 8.7164760417259943e-02 2.5701212354309966e-01  5.0828922945225041e-01 8.9201546410563881e-02 2.4445531346168664e-01  5.0560142646423367e-01 9.1619542840419205e-02 2.3168841586000485e-01  5.0297350067491953e-01 9.4377942374670939e-02 2.1910152830516155e-01  5.0048071129142702e-01 9.7434860482648100e-02 2.0703001320100595e-01  4.9818894428336252e-01 1.0074046221301956e-01 1.9575738300309556e-01  4.9616494229984287e-01 1.0419082783710636e-01 1.8559115467697321e-01  4.9294283470867950e-01 1.1152196706985798e-01 1.6857105109687850e-01  4.9138693563720787e-01 1.1641910207272241e-01 1.5968262195706701e-01  4.8999871255776711e-01 1.2192252038364057e-01 1.5115877932481728e-01  4.8882242053826441e-01 1.2800281987724915e-01 1.4316985861293496e-01  4.8787621450334157e-01 1.3462257590417745e-01 1.3578047830841700e-01  4.8717912082835918e-01 1.4178792714877189e-01 1.2903316249364352e-01  4.8674426242057062e-01 1.4954326054776723e-01 1.2292253712964392e-01  4.8658605761266960e-01 1.5794497172983063e-01 1.1743873737025610e-01  4.8671970147177940e-01 1.6705331101268947e-01 1.1257096155856527e-01  4.8717282063146616e-01 1.7701034045215144e-01 1.0830238562820138e-01  4.8797277205764622e-01 1.8794034892830969e-01 1.0462201256147938e-01  4.8915383490440906e-01 1.9997611111797448e-01 1.0153391015802897e-01  4.9078168070349348e-01 2.1340348630300995e-01 9.9052196934108036e-02  4.9291842390925922e-01 2.2837388134983361e-01 9.7244673024460673e-02  4.9565813098094386e-01 2.4528239375838537e-01 9.6132563909190047e-02  5.0308087869694085e-01 2.8470033527105570e-01 9.6295611963354941e-02  5.0781802957721300e-01 3.0700627253138452e-01 9.7717043773016612e-02  5.1343821405837275e-01 3.3168080964727120e-01 1.0015349166030370e-01  5.2021178559931203e-01 3.5933920826267113e-01 1.0388887825855990e-01  5.2826155539846187e-01 3.8998614250880104e-01 1.0907172601328169e-01  5.3800832037802504e-01 4.2435630755112108e-01 1.1615467310343790e-01  5.5032675377607532e-01 4.6403758840643267e-01 1.2609590475430124e-01  5.8764390578628711e-01 5.6489853937550283e-01 1.6142388032391991e-01  6.0364980790836409e-01 5.9955024512591915e-01 1.7924367330606683e-01  6.1840760289401320e-01 6.2628868491362610e-01 1.9770300838140115e-01  6.3236068440151816e-01 6.4675776334967960e-01 2.1754069317053945e-01  6.4553341494661487e-01 6.6155241411135535e-01 2.3910230546936898e-01  6.5775170574645558e-01 6.7090071675970731e-01 2.6246207025564189e-01  6.6872371893114380e-01 6.7513285267832668e-01 2.8723414401568670e-01  6.7797865756659847e-01 6.7491876704980480e-01 3.1207235986117515e-01  6.8910329063143427e-01 6.6596271043612332e-01 3.5216873870193965e-01  6.9563803437446148e-01 6.5393121963813128e-01 3.8421905575904852e-01  7.0268082023111644e-01 6.3475623209306764e-01 4.2686874988892393e-01  7.1613554235767429e-01 5.6281530927777679e-01 5.5448519932526052e-01  7.1847957054795419e-01 5.2387287932425408e-01 6.1060816734094248e-01  7.1807946055035088e-01 4.8392206334817583e-01 6.6011281750579798e-01  7.1515352331912263e-01 4.4271110237090561e-01 7.0322090112878599e-01  7.0974025530511708e-01 4.0050538612412812e-01 7.3890148586869420e-01  7.0177685965249759e-01 3.5764392376571807e-01 7.6552801684022265e-01  6.9110785461569435e-01 3.1392543516978749e-01 7.8171974998562022e-01  6.6038697719640349e-01 2.2116369378603698e-01 7.7647331766978500e-01  6.4911398460721792e-01 1.9466618492276300e-01 7.6170628868724521e-01  6.3968613983360778e-01 1.7555189041060987e-01 7.4428851392764628e-01  6.3159166846767612e-01 1.6116596434553079e-01 7.2604811728412166e-01  6.2457284184043127e-01 1.5008099269508071e-01 7.0803582961272349e-01  6.1846564182291652e-01 1.4141119624904308e-01 6.9086000325169894e-01  6.1319460045955776e-01 1.3460230661635328e-01 6.7501003514831737e-01  6.0872403730378055e-01 1.2926839052039213e-01 6.6089102037244751e-01  6.0498434130644430e-01 1.2509851299178043e-01 6.4863404139803460e-01  6.0197217302477957e-01 1.2189467799479514e-01 6.3850198132572566e-01  5.9962620575538828e-01 1.1948373586590047e-01 6.3045755046858531e-01  5.9795106008502408e-01 1.1775876356150686e-01 6.2466727142117229e-01  5.9689594659322975e-01 1.1662114037162170e-01 6.2103747144232457e-01  5.9634238233361059e-01 1.1598434415069946e-01 6.1915469016912283e-01  5.9474071530752559e-01 1.1560965464757036e-01 6.1245850244545996e-01  5.9000960316043161e-01 1.1513397032719164e-01 5.9212111796977795e-01  5.8262302014913203e-01 1.1478919936141647e-01 5.5998944915992721e-01  5.7337660260314249e-01 1.1508315428385286e-01 5.1919381601325842e-01  5.6275901036958642e-01 1.1636879160761543e-01 4.7178408207423039e-01  5.4415542990898991e-01 1.2291656834254490e-01 3.8638058216366317e-01  5.4407219949592323e-01 1.1585399967430804e-01 3.9130778483067735e-01  5.4243184643425790e-01 1.1119965188676739e-01 3.8779831081068189e-01  5.4101060120399391e-01 1.0797881643812100e-01 3.8414808122045035e-01  5.4010347165702155e-01 1.0599806291143835e-01 3.8175556218008999e-01  5.4018908429010248e-01 1.0618724527697858e-01 3.8198016088377135e-01  5.4144171166276422e-01 1.0883338083175009e-01 3.8534860177506658e-01  5.4381684502291450e-01 1.1304475977964737e-01 3.9233471976619455e-01  5.3556652552784478e-01 1.5646844943628585e-01 3.2520822926710485e-01  5.3286020774657350e-01 1.7650803790828573e-01 2.9919023735836131e-01  5.3224102736688228e-01 1.9824700889772442e-01 2.8064548447221122e-01  5.3360239290152478e-01 2.2175838323157482e-01 2.6879028177310815e-01  5.3688676437383387e-01 2.4663295012204556e-01 2.6343744568338107e-01  5.4199372394090395e-01 2.7206521717837834e-01 2.6459947512167903e-01  5.4883816643530225e-01 2.9700189735456728e-01 2.7264052686873130e-01  5.5737464981014706e-01 3.2019454927127999e-01 2.8836097250657500e-01  5.6775577985358294e-01 3.4032461342723169e-01 3.1356734679857545e-01  5.9510196367719737e-01 3.6220054668353097e-01 4.0586984247440155e-01  6.0532954617797996e-01 3.5891315789209971e-01 4.5064810425897223e-01  6.1403408684092464e-01 3.5068004857512525e-01 4.9365852915678765e-01  6.2170529854265866e-01 3.3970184993039720e-01 5.3470922614395822e-01  6.2879244727477601e-01 3.2805883051378426e-01 5.7344762485890111e-01  6.3562572260382033e-01 3.1735428840001650e-01 6.0946172543405253e-01  6.4252178280540340e-01 3.0891923107293923e-01 6.4253618466901063e-01  6.4970947313152483e-01 3.0368679048409053e-01 6.7250142199206087e-01  6.5729933955399689e-01 3.0219029479533188e-01 6.9913389868131171e-01  6.6523434801932357e-01 3.0457590947804775e-01 7.2199111239613567e-01  6.7329504057689893e-01 3.1058618384143516e-01 7.4053020039815576e-01  6.8099028489218216e-01 3.1936177542483185e-01 7.5409636916235223e-01  6.9339753562174378e-01 3.4117450280060513e-01 7.6498430856880528e-01  7.0299727983180149e-01 3.6349605983271210e-01 7.6478233740166579e-01  7.1453074608988754e-01 3.9408499249904122e-01 7.5733563587689889e-01  7.2819363855786623e-01 4.3494299681072385e-01 7.3859146031561917e-01  7.5783684732273193e-01 5.2912362008684033e-01 6.7716605884261905e-01  7.6123861829275008e-01 5.3824848424202942e-01 6.7109234681085361e-01  7.6258563121649203e-01 5.4141204935685516e-01 6.6910049634483426e-01  7.6261324592287727e-01 5.4147702231438266e-01 6.6905739626840954e-01  7.6174602775876954e-01 5.3988983763888843e-01 6.6978260654907062e-01  7.6103865035046581e-01 5.3997756494407334e-01 6.6847445653734539e-01  7.6164385334812845e-01 5.4598971685143383e-01 6.6129126398256177e-01  7.6773165302298674e-01 5.7864425172080691e-01 6.2585443779671557e-01  7.7091678473150227e-01 5.9380739067032973e-01 6.0921213339622016e-01  7.7353228212340674e-01 6.0513231762554720e-01 5.9679315719140091e-01  7.7528637824703484e-01 6.1231414582955213e-01 5.8889920335420265e-01  7.7586453607291261e-01 6.1468598203476688e-01 5.8626512231797823e-01  7.7538742978186315e-01 6.1296021178288962e-01 5.8810742351862166e-01  7.7401798347975848e-01 6.0810987084190293e-01 5.9321318442072357e-01  7.7165064082580281e-01 6.0101613862789272e-01 6.0010229624397760e-01  7.6704242555067392e-01 6.1098237227000241e-01 5.7992916800125593e-01  7.6714986441962474e-01 6.2771168519045861e-01 5.5629034630949115e-01  7.6707406161783309e-01 6.4233726087459386e-01 5.3508563655646013e-01  7.6669188370824382e-01 6.5435362760691063e-01 5.1702873826451734e-01  7.6611787574384671e-01 6.6321407759024120e-01 5.0320168918194719e-01  7.6463946306962416e-01 6.7116688336252117e-01 4.8932800511367358e-01  7.6263460493623647e-01 6.7626402110809580e-01 4.7883320054800482e-01  7.5974222957