<?xml version="1.0"?>
<VTKFile type="UnstructuredGrid"  version="0.1"  >
<UnstructuredGrid>
<Piece  NumberOfPoints="7288" NumberOfCells="14083">
<Points>
<DataArray  type="Float64"  NumberOfComponents="3"  format="ascii">239.8 188 0  250.2 180 0  258.2 172.4 0  257 169.4 0  259.9 157.4 0  258.7 150.3 0  261 143.5 0  251.7 144.4 0  250 138.7 0  247 138.1 0  245.2 130.8 0  247.3 126.4 0  242.7 118.6 0  231.2 107.7 0  226 102.4 0  226.5 93.90000000000001 0  224.5 91.19999999999999 0  224.5 84.09999999999999 0  234.5 73.80000000000001 0  228.4 68.90000000000001 0  230 70 0  233.4 68 0  222.7 61.5 0  220.6 45.5 0  223.4 49.40000000000001 0  224 47 0  221.8 43.09999999999999 0  221 38.40000000000001 0  219.5 38.5 0  219.4 41.69999999999999 0  217.1 36.90000000000001 0  209.7 36 0  209.5 31.69999999999999 0  205.1 29.90000000000001 0  201.5 30.40000000000001 0  199.2 38.69999999999999 0  201.8 41.40000000000001 0  194.8 53.80000000000001 0  196.1 57.69999999999999 0  193 59 0  191.4 66.09999999999999 0  193.5 66.5 0  194.1 64.40000000000001 0  195.6 64.69999999999999 0  195.4 72.40000000000001 0  199.5 77.30000000000001 0  197.7 86.90000000000001 0  200.6 87.5 0  201.5 91 0  198 94.80000000000001 0  198.6 100 0  197.3 105.4 0  198 109.5 0  197 112.7 0  198.3 116.1 0  201.3 122 0  207.2 121 0  208.1 126.7 0  205.6 127.9 0  209.1 134.9 0  210.9 144.4 0  210.1 147.9 0  213 148.4 0  215.4 149.3 0  215.1 152.8 0  219.9 159.7 0  220.3 163.2 0  218.7 164.9 0  219.9 166.7 0  221.9 169.7 0  220 170.3 0  224.9 174.7 0  229.8 177.4 0  229.7 181 0  228 172.9 0  239 178 0  240.4 180 0  239 181.5 0  241.2 185.9 0  242.95 187.99 0  240.5875 187.9975 0  241.375 187.995 0  242.1625 187.9925 0  243.6090909090879 187.2636363636397 0  244.2681818181765 186.5372727272785 0  244.9272727272692 185.810909090913 0  245.5863636363531 185.0845454545571 0  246.245454545445 184.3581818181923 0  246.9045454545351 183.6318181818295 0  247.5636363636303 182.9054545454612 0  248.2227272727197 182.1790909090992 0  248.8818181818179 181.4527272727275 0  249.5409090909066 180.7263636363664 0  250.8666666666961 179.3666666666387 0  251.5333333334033 178.7333333332668 0  252.2000000000994 178.0999999999055 0  252.8666666668011 177.466666666539 0  253.5333333335083 176.8333333331671 0  254.2000000002044 176.1999999998058 0  254.8666666669005 175.5666666664445 0  255.5333333336077 174.9333333330727 0  256.2000000002685 174.2999999997449 0  256.8666666668457 173.6666666664966 0  257.5333333334283 173.033333333243 0  257.9000000000077 171.6500000000191 0  257.6000000000015 170.9000000000038 0  257.2999999999954 170.1499999999885 0  257.2230769230778 168.4769230769195 0  257.4461538461543 167.5538461538442 0  257.6692307692309 166.6307692307688 0  257.8923076923074 165.7076923076935 0  258.115384615384 164.7846153846181 0  258.3384615384605 163.8615384615427 0  258.5615384615395 162.9384615384572 0  258.784615384616 162.0153846153819 0  259.0076923076926 161.0923076923065 0  259.2307692307691 160.1692307692311 0  259.4538461538457 159.2461538461558 0  259.6769230769222 158.3230769230804 0  259.750000000001 156.512500000006 0  259.6000000000014 155.6250000000082 0  259.4500000000029 154.7375000000176 0  259.3000000000018 153.8500000000108 0  259.1500000000007 152.962500000004 0  259.0000000000004 152.0750000000026 0  258.849999999999 151.187499999994 0  258.9875000000052 149.4499999999846 0  259.275000000002 148.5999999999941 0  259.5624999999954 147.7500000000135 0  259.849999999995 146.900000000015 0  260.1374999999945 146.0500000000164 0  260.4249999999913 145.2000000000259 0  260.7124999999948 144.3500000000154 0  260.0700000000398 143.5899999999961 0  259.1400000000573 143.6799999999944 0  258.2100000000351 143.7699999999966 0  257.2800000000262 143.8599999999975 0  256.350000000011 143.9499999999989 0  255.4199999999881 144.0400000000011 0  254.4899999999726 144.1300000000026 0  253.5599999999944 144.2200000000005 0  252.6300000000009 144.3099999999999 0  251.4166666666658 143.4499999999971 0  251.1333333333388 142.5000000000182 0  250.8500000000015 141.5500000000051 0  250.5666666666612 140.5999999999818 0  250.2833333333342 139.6500000000029 0  249.2500000000005 138.5500000000001 0  248.5000000000011 138.4000000000002 0  247.7499999999995 138.2499999999999 0  246.7750000000005 137.1875000000023 0  246.5500000000021 136.2750000000085 0  246.3250000000036 135.3625000000147 0  246.1000000000042 134.450000000017 0  245.8750000000022 133.5375000000088 0  245.650000000003 132.6250000000124 0  245.4250000000046 131.7125000000187 0  245.619999999996 129.9200000000084 0  246.0399999999992 129.0400000000017 0  246.4599999999987 128.1600000000028 0  246.8800000000001 127.2799999999997 0  246.8399999999988 125.6199999999979 0  246.3799999999984 124.8399999999973 0  245.9199999999991 124.0599999999985 0  245.4600000000036 123.2800000000062 0  245.0000000000049 122.5000000000082 0  244.5400000000036 121.7200000000062 0  244.0800000000033 120.9400000000056 0  243.6200000000016 120.1600000000027 0  243.1600000000012 119.3800000000021 0  241.9812499999996 117.9187499999997 0  241.2625000000007 117.2375000000007 0  240.5437500000017 116.5562500000017 0  239.8250000000041 115.875000000004 0  239.1062500000066 115.1937500000063 0  238.3875000000076 114.5125000000072 0  237.6687500000087 113.8312500000082 0  236.9500000000083 113.1500000000079 0  236.231250000008 112.4687500000076 0  235.512500000009 111.7875000000085 0  234.7937500000045 111.1062500000043 0  234.0750000000042 110.4250000000039 0  233.3562500000066 109.7437500000062 0  232.6375000000021 109.062500000002 0  231.9187500000031 108.381250000003 0  230.5500000000004 107.0375000000004 0  229.9000000000021 106.3750000000021 0  229.2500000000038 105.7125000000039 0  228.6000000000041 105.0500000000042 0  227.9500000000018 104.3875000000018 0  227.2999999999952 103.7249999999951 0  226.6500000000024 103.0625000000024 0  226.0555555555555 101.4555555555556 0  226.1111111111111 100.5111111111111 0  226.1666666666667 99.56666666666668 0  226.2222222222222 98.62222222222223 0  226.2777777777778 97.67777777777778 0  226.3333333333333 96.73333333333335 0  226.3888888888889 95.78888888888889 0  226.4444444444445 94.84444444444446 0  226 93.22499999999999 0  225.5000000000026 92.55000000000358 0  225.0000000000026 91.87500000000358 0  224.5 90.31250000000068 0  224.5 89.4250000000097 0  224.5 88.53750000001317 0  224.5 87.65000000001388 0  224.5 86.76250000001457 0  224.5 85.87500000001248 0  224.5 84.9874999999993 0  225.1666666666659 83.41333333333409 0  225.8333333333319 82.72666666666818 0  226.4999999999978 82.04000000000228 0  227.1666666666649 81.35333333333514 0  227.8333333333301 80.66666666667 0  228.4999999999942 79.980000000006 0  229.1666666666601 79.2933333333401 0  229.8333333333316 78.60666666666847 0  230.4999999999975 77.92000000000257 0  231.1666666666644 77.23333333333572 0  231.8333333333295 76.54666666667057 0  232.4999999999972 75.86000000000287 0  233.1666666666681 75.17333333333181 0  233.8333333333368 74.48666666666306 0  233.7499999999995 73.16666666666629 0  233.0000000000018 72.53333333333488 0  232.2500000000014 71.90000000000116 0  231.5000000000009 71.26666666666743 0  230.7500000000005 70.63333333333372 0  229.233333333333 68.75000000000006 0  230.0666666666665 68.60000000000004 0  230.8999999999995 68.45000000000009 0  231.7333333333325 68.30000000000015 0  232.566666666667 68.14999999999995 0  232.5499999999897 68.50000000000607 0  231.7 69 0  230.8500000000103 69.49999999999393 0  227.8300000000008 68.16000000000106 0  227.2600000000064 67.42000000000837 0  226.6900000000077 66.68000000001001 0  226.1200000000024 65.94000000000314 0  225.5500000000108 65.20000000001409 0  224.9800000000098 64.46000000001268 0  224.4100000000007 63.72000000000098 0  223.8399999999971 62.97999999999621 0  223.2699999999993 62.23999999999915 0  222.753846153846 60.56923076923239 0  222.8076923076921 59.63846153846478 0  222.8615384615381 58.70769230769827 0  222.9153846153842 57.77692307693071 0  222.9692307692302 56.84615384616315 0  223.0230769230761 55.91538461539836 0  223.0769230769224 54.98461538462665 0  223.1307692307688 54.05384615385345 0  223.184615384615 53.12307692308312 0  223.2384615384611 52.19230769231556 0  223.2923076923071 51.26153846154906 0  223.3461538461533 50.33076923077847 0  222.8400000000024 48.62000000000327 0  222.2800000000047 47.84000000000661 0  221.7200000000005 47.06000000000071 0  221.1600000000003 46.28000000000039 0  221.4500000000116 45.87500000000512 0  222.3 46.25 0  223.1499999999884 46.62499999999488 0  223.5600000000055 46.22000000000981 0  223.1199999999987 45.43999999999767 0  222.6800000000061 44.66000000001075 0  222.2399999999969 43.8799999999944 0  221.6400000000004 42.16000000000253 0  221.4800000000009 41.22000000000548 0  221.3200000000014 40.28000000000801 0  221.1600000000009 39.34000000000556 0  220.25 38.45 0  219.4749999999999 39.30000000000165 0  219.45 40.09999999999999 0  219.425 40.90000000000112 0  219.0166666666641 40.89999999999463 0  218.6333333333375 40.10000000000875 0  218.2500000000016 39.30000000000339 0  217.8666666666635 38.49999999999351 0  217.483333333337 37.70000000000762 0  216.1750000000165 36.78750000000201 0  215.2500000000275 36.67500000000335 0  214.3250000000385 36.56250000000469 0  213.4000000000277 36.45000000000337 0  212.4750000000059 36.33750000000072 0  211.5499999999838 36.22499999999803 0  210.6249999999835 36.11249999999799 0  209.6600000000001 35.14000000000318 0  209.6200000000001 34.28000000000268 0  209.5800000000001 33.42000000000284 0  209.5399999999998 32.55999999999681 0  208.6200000000117 31.34000000000476 0  207.7400000000138 30.98000000000564 0  206.8600000000162 30.62000000000662 0  205.9800000000174 30.26000000000711 0  204.2000000000054 30.02499999999925 0  203.2999999999946 30.15000000000076 0  202.3999999999945 30.27500000000076 0  201.2444444444438 31.32222222222468 0  200.9888888888895 32.24444444
[...]
<PointData  Vectors="f_12"> 
<DataArray  type="Float64"  Name="f_12"  NumberOfComponents="3" format="ascii">4.9546447887762329e-01 1.4137734500975882e-01 1.6428260068855530e-01  5.1262380168212696e-01 3.0500482296026343e-01 1.1855455455036742e-01  5.1581996683249720e-01 3.6201486001831401e-01 8.8063818311675479e-02  5.1546267097679122e-01 3.6211934880981378e-01 8.6622756414696994e-02  4.9395752564758272e-01 2.5146714411380888e-01 8.6519029444929452e-02  4.8484552538307690e-01 1.7324199684902655e-01 1.0200309604373035e-01  4.8215101882970929e-01 1.3742090440528446e-01 1.1274229073113623e-01  4.8349683521663700e-01 1.4650003145383617e-01 1.1261844351266531e-01  4.8562115093981623e-01 1.2534066266432187e-01 1.3240529695568573e-01  4.8912372463878279e-01 1.1773572112918732e-01 1.5012776218504495e-01  5.1905610801184821e-01 8.7836327025613017e-02 2.9095309795011670e-01  5.3829930719849339e-01 7.9750810318721804e-02 3.8120788639767600e-01  5.2789997086097862e-01 8.8883137600680492e-02 3.3012228248976844e-01  5.9266630483891869e-01 4.5563687780498463e-01 2.9865695179089685e-01  6.1838408929448974e-01 3.0192851710538871e-01 5.5988812375058017e-01  5.5199636464175972e-01 1.1426039939061086e-01 4.3307416151595024e-01  5.4777077670509677e-01 1.0113040167947070e-01 4.1998440154181849e-01  5.8121222895288027e-01 1.0695024737259602e-01 5.5555356103254994e-01  7.5337080301003445e-01 3.9604521191322922e-01 8.2581098879454296e-01  7.3754352275441071e-01 3.5278544708182552e-01 8.4322515992791214e-01  7.4803330482155195e-01 3.8137686157741846e-01 8.3236749590024961e-01  7.6278475814178992e-01 4.2737950603643660e-01 8.0554430591324089e-01  6.6813699886857758e-01 2.5479526317514006e-01 7.7495121454902482e-01  5.3917653092827655e-01 3.3628296166785904e-01 1.9509198155227675e-01  6.1589906317689902e-01 4.7109280782657442e-01 3.7061517576972852e-01  5.1782876014429635e-01 2.9190473345585272e-01 1.4797751582488980e-01  5.1473484309826611e-01 2.6949984904123575e-01 1.5194218710338678e-01  4.9595881875643966e-01 2.0587158991202734e-01 1.2424672754324294e-01  4.9602119306110293e-01 2.0601615168413595e-01 1.2438628935779213e-01  5.0682250542073948e-01 2.3286094991202042e-01 1.4732551487623219e-01  4.9534449397941815e-01 1.4869980060193402e-01 1.5791216748404999e-01  5.2309023250255948e-01 1.1225637019411325e-01 2.9448468589522037e-01  5.5815894531735277e-01 9.0005893456145555e-02 4.6381482897619086e-01  5.7287335256373539e-01 9.0360190468198529e-02 5.2919280258307677e-01  5.7308298331458818e-01 9.0762489424414602e-02 5.2973608874565858e-01  5.2584498858453610e-01 1.1057548187656839e-01 3.0885492675955839e-01  5.2523861913975001e-01 1.9464730452440285e-01 2.4853523976178640e-01  6.7103061148484222e-01 5.6788274837452501e-01 4.3715204793337942e-01  6.9548280606467128e-01 4.6845908910494710e-01 6.2717152734849191e-01  7.0765642049834743e-01 4.2163952667119087e-01 7.1501583569331162e-01  6.7443339807473246e-01 2.3285299891801559e-01 8.1318133150388527e-01  6.7189387497153086e-01 2.3174623347582210e-01 8.0659821148409494e-01  6.9566289118656222e-01 3.3636834089046325e-01 7.7679087234719846e-01  6.8390602444354476e-01 2.9146097460901182e-01 7.8763289374506795e-01  6.2727711747789527e-01 1.5825330981001037e-01 7.1166557439924061e-01  5.5908239588929853e-01 1.0011596704487633e-01 4.6752119100199702e-01  5.3101124865571625e-01 9.9041579337438054e-02 3.4539817858266358e-01  5.3718010588233855e-01 1.0976728497405540e-01 3.6716026814326336e-01  5.8491966065912737e-01 1.8065856280758175e-01 5.2650786831878549e-01  6.6340969517389226e-01 3.4540088984036754e-01 6.7706997732541296e-01  6.7878550760262701e-01 5.0979335682317894e-01 5.3283331594033823e-01  6.3245438608826832e-01 5.8324600834545037e-01 2.9732611350125987e-01  5.7495572664287309e-01 4.8905740937074343e-01 1.9448738130738621e-01  5.3517962229148364e-01 3.8169549031739736e-01 1.4271975432683945e-01  5.1224113155250151e-01 2.9620146105380213e-01 1.2243577356252308e-01  4.9137328118434831e-01 2.0038507839109990e-01 1.1043521821668285e-01  5.0528984705918778e-01 2.0742460056405074e-01 1.5918090897824255e-01  5.4923730321190811e-01 1.1435644176163431e-01 4.0782491173811064e-01  5.6825435736263019e-01 1.0278452833163065e-01 5.0156067283702188e-01  6.3532805902350797e-01 1.4070362216669938e-01 7.4354234000127783e-01  5.9569205411150006e-01 1.0665358474015141e-01 6.1285369768872933e-01  5.8168372957960546e-01 9.7085580033510588e-02 5.6186928861236596e-01  5.6859933211113745e-01 9.4483592071517852e-02 5.0530990098660378e-01  5.3686144766832578e-01 9.0604599498920926e-02 3.6720834636745264e-01  5.1178867583897236e-01 8.9836009191471236e-02 2.5932605821362437e-01  4.8996014751662043e-01 1.1576431976841571e-01 1.5464713346813388e-01  4.8564914131677128e-01 1.2544966994517065e-01 1.3261583736648491e-01  4.8474231615657548e-01 1.2511286107025474e-01 1.2938942766795133e-01  4.8445761983946400e-01 1.2848652339758335e-01 1.2643721891267107e-01  4.8429884157172692e-01 1.3956660202440649e-01 1.1961044472894612e-01  4.8404383808211754e-01 1.3257837140280138e-01 1.2260604580694384e-01  4.8520398004738730e-01 1.6821007529277104e-01 1.0649029061641338e-01  4.9533287559755934e-01 2.5798752908358918e-01 8.7503676012370399e-02  4.9470694826917450e-01 2.5846718491290899e-01 8.5107023023700032e-02  4.8997627086696954e-01 2.0657301614105181e-01 1.0049526584560871e-01  5.1465750217297657e-01 3.2143921049592677e-01 1.1374642979994061e-01  5.0978116059686307e-01 2.6169476165989908e-01 1.3889512534884602e-01  5.0471400716272563e-01 2.2190209303657715e-01 1.4754273187975001e-01  4.9710884170275255e-01 1.5776459350114491e-01 1.6039005185105840e-01  4.9608352306755327e-01 1.4849544938012155e-01 1.6226463966217838e-01  4.9554422121408759e-01 1.4225133300643225e-01 1.6405136416714575e-01  4.9571471424580532e-01 1.4418711405254792e-01 1.6351380052308281e-01  4.9590884551672998e-01 1.4646759301948606e-01 1.6285079896550675e-01  4.9654675487022448e-01 1.5349476811990181e-01 1.6092396213843937e-01  4.9740252492325121e-01 1.6248916752630838e-01 1.5854414002107456e-01  4.9855403091474720e-01 1.7424405071162091e-01 1.5545642051467812e-01  4.9996117527997308e-01 1.8815122452828012e-01 1.5182287863726585e-01  5.0159268371680621e-01 2.0378224170350823e-01 1.4774193533444815e-01  5.0338734664014007e-01 2.2056649168189599e-01 1.4330323121203747e-01  5.0530722186851962e-01 2.3813577818692003e-01 1.3858013367402922e-01  5.0726365206337476e-01 2.5584989775028266e-01 1.3366282475589444e-01  5.0916356011973474e-01 2.7307660314917376e-01 1.2864603860730020e-01  5.1097150568355265e-01 2.8955985947338847e-01 1.2360611862884208e-01  5.1392058127579243e-01 3.1777485651669346e-01 1.1399976449981143e-01  5.1492217417487585e-01 3.2841391794264546e-01 1.0983210064578662e-01  5.1568643091972799e-01 3.3732244464080341e-01 1.0601373375511886e-01  5.1622264662591988e-01 3.4458395483680132e-01 1.0255098908980322e-01  5.1654025020263494e-01 3.5026775361503343e-01 9.9450811692861643e-02  5.1666560875466216e-01 3.5452714382024825e-01 9.6712111345732446e-02  5.1664632767784957e-01 3.5760641674115329e-01 9.4333371462900273e-02  5.1651708313835021e-01 3.5968249073968206e-01 9.2311980437090907e-02  5.1631516501388675e-01 3.6093479934186495e-01 9.0648988382865309e-02  5.1609511635469363e-01 3.6160886585498792e-01 8.9355331286727083e-02  5.1590871868643695e-01 3.6190700207037541e-01 8.8463738547112702e-02  5.1582748848208615e-01 3.6226022822518955e-01 8.7900620138280372e-02  5.1583606464588361e-01 3.6266420266553562e-01 8.7613429680248614e-02  5.1577567361796195e-01 3.6286009124054069e-01 8.7226242448488922e-02  5.1464154901126757e-01 3.5923485184633780e-01 8.5789217816198249e-02  5.1357075402191632e-01 3.5493676204247265e-01 8.5105534604535876e-02  5.1224357205134285e-01 3.4919947417494113e-01 8.4545110544321969e-02  5.1068736592464870e-01 3.4211871730473398e-01 8.4114126809251885e-02  5.0893642969599695e-01 3.3382209650782346e-01 8.3819361091927197e-02  5.0703265130440678e-01 3.2448001721288072e-01 8.3664842303991196e-02  5.0502212329876817e-01 3.1429194867335342e-01 8.3652072885744666e-02  5.0295687960552737e-01 3.0349913747799834e-01 8.3780900259997779e-02  5.0088889810736703e-01 2.9234377090240415e-01 8.4055091413186706e-02  4.9887967721610732e-01 2.8112734339081347e-01 8.4482008615237456e-02  4.9698871269174022e-01 2.7017555675336125e-01 8.5055674328037609e-02  4.9528944280493126e-01 2.5991294838880064e-01 8.5765580134276667e-02  4.9282013765348237e-01 2.4371790192431120e-01 8.7444428389539378e-02  4.9156868286575744e-01 2.3466408722965271e-01 8.8733415392653350e-02  4.9031111601507416e-01 2.2498174516604907e-01 9.0323753747864929e-02  4.8910765520650495e-01 2.1507223636954678e-01 9.2169963635743452e-02  4.8796984844151836e-01 2.0502672253420792e-01 9.4252145270998497e-02  4.8689660088250047e-01 1.9486808959072097e-01 9.6550985746174475e-02  4.8587834107720124e-01 1.8451027149959598e-01 9.9079578847407188e-02  4.8396130225454170e-01 1.6293171791355016e-01 1.0481561652152344e-01  4.8334869406735204e-01 1.5525637938072329e-01 1.0701630302196158e-01  4.8290710158955069e-01 1.4929926334484583e-01 1.0881077087164107e-01  4.8258982055708199e-01 1.4469462020549773e-01 1.1026316994391419e-01  4.8237404235235887e-01 1.4131658246501683e-01 1.1137768334334876e-01  4.8223947193280203e-01 1.3904807420534984e-01 1.1215738513192069e-01  4.8216988289101842e-01 1.3778680768787829e-01 1.1260739851214513e-01  4.8216450118794035e-01 1.3773286262064974e-01 1.1261847011341217e-01  4.8219950624156138e-01 1.3859974387477839e-01 1.1226591358775538e-01  4.8224914992219581e-01 1.3985735297477475e-01 1.1175047408641911e-01  4.8231640997710312e-01 1.4142358011257697e-01 1.1112714364067226e-01  4.8240315396344324e-01 1.4313933260620812e-01 1.1049006285721771e-01  4.8251552842944800e-01 1.4485410187934708e-01 1.0994418051365272e-01  4.8266495911272322e-01 1.4644420630635213e-01 1.0959958698782939e-01  4.8286144469346109e-01 1.4769113606019230e-01 1.0961650463447913e-01  4.8311967978217246e-01 1.4815826716209168e-01 1.1029775022956506e-01  4.8383775766857917e-01 1.4113556249622133e-01 1.1690632369261249e-01  4.8414226123276072e-01 1.3654267494850961e-01 1.2061653181897050e-01  4.8450880460171458e-01 1.3259191404281714e-01 1.2419191474953155e-01  4.8491437086386147e-01 1.2924874784351481e-01 1.2757286637674631e-01  4.8531964675031425e-01 1.2669427280575982e-01 1.3051542415544828e-01  4.8587046349096152e-01 1.2468111488662899e-01 1.3372015712748564e-01  4.8644894344321377e-01 1.2331574344403258e-01 1.3668942380638086e-01  4.8740920171033214e-01 1.2124414428043152e-01 1.4153434917442903e-01  4.9184889804513759e-01 1.1251093729990146e-01 1.6369931172383675e-01  4.9436560900655185e-01 1.0842614034370722e-01 1.7595144613960301e-01  4.9710114100952846e-01 1.0472942546280860e-01 1.8900118695150273e-01  5.0020058201730155e-01 1.0125545771092299e-01 2.0355484189693851e-01  5.0376825440820394e-01 9.7935814998546922e-02 2.2012954148403296e-01  5.0789403693656299e-01 9.4706414230817645e-02 2.3920611852798807e-01  5.1274242866491582e-01 9.1463146062798956e-02 2.6163519604362373e-01  5.2542294400520495e-01 8.4703828692885619e-02 3.2063651485859812e-01  5.3019909500970086e-01 8.2644485957644190e-02 3.4302799959132568e-01  5.3401193009041037e-01 8.1184391773015244e-02 3.6097673075076186e-01  5.3682340598146283e-01 8.0217272718692237e-02 3.7423892346708965e-01  5.3919785309511781e-01 7.9488159758154361e-02 3.8546760899786214e-01  5.4026553247790765e-01 7.9185767027634732e-02 3.9055780084811093e-01  5.4105649812975376e-01 7.8971858988631016e-02 3.9437475010285389e-01  5.4129342662945579e-01 7.8937715321895849e-02 3.9559546582828525e-01  5.4075325491349835e-01 7.9190308969716100e-02 3.9313097340084185e-01  5.3937314476813791e-01 7.9851641331611475e-02 3.8661541209103439e-01  5.3718530558545952e-01 8.1063977970354098e-02 3.7611998681401121e-01  5.3432036292804441e-01 8.2958582101274270e-02 3.6218780967468922e-01  5.3106587107077485e-01 8.5618896617168261e-02 3.4610119346550033e-01  5.2426730903512442e-01 9.3890171454501348e-02 3.1116382140547755e-01  5.2037361044705610e-01 1.0131729383221748e-01 2.8977127402605724e-01  5.1681037493649351e-01 1.1120753367646789e-01 2.6846653056613967e-01  5.1400973272743955e-01 1.2402621964739161e-01 2.4870598079045728e-01  5.1229878086969927e-01 1.4007192139795860e-01 2.3146132965791552e-01  5.1196927577381113e-01 1.5969659401214928e-01 2.1743530076883788e-01  5.1325246546314529e-01 1.8317858785819571e-01 2.0705624332308284e-01  5.1629032062987523e-01 2.1052590773372840e-01 2.0053672948416587e-01  5.2112001516076956e-01 2.4135227375162147e-01 1.9794916103288146e-01  5.2775188119166083e-01 2.7508220672340483e-01 1.9940606645000147e-01  5.3605099258097133e-01 3.1056963870365928e-01 2.0492798101650772e-01  5.4578250856097188e-01 3.4626320655226789e-01 2.1455377221949004e-01  5.5674048554266253e-01 3.8061757931334100e-01 2.2856254151768465e-01  5.6846047424510115e-01 4.1130897270957767e-01 2.4708962665941106e-01  5.8058829345878937e-01 4.3683317055740772e-01 2.7039748817686543e-01  6.0332419002276272e-01 4.6557225067333802e-01 3.2942804182185448e-01  6.1266835476032921e-01 4.6720937386909417e-01 3.6336549875105939e-01  6.2039886943382805e-01 4.6072904073477006e-01 3.9976623520163440e-01  6.2600774479857269e-01 4.4559285580425234e-01 4.3769893309529606e-01  6.2919752972424592e-01 4.2276634450520134e-01 4.7502408514976385e-01  6.2957322839990015e-01 3.9243282991983403e-01 5.0963327434115990e-01  6.2650257599194592e-01 3.5393523809054500e-01 5.3877295809127590e-01  6.0633973365975458e-01 2.4996862817673762e-01 5.6136045775297616e-01  5.9553664506268778e-01 2.1392424940254870e-01 5.4907742741268084e-01  5.8556766379700564e-01 1.8635151884234238e-01 5.2998666195822752e-01  5.7665965330732361e-01 1.6492063812100452e-01 5.0832324570246612e-01  5.6899534532103690e-01 1.4823497687569651e-01 4.8698621613047421e-01  5.6267482307580230e-01 1.3536658437194360e-01 4.6783940046526445e-01  5.5771465283340116e-01 1.2561107627682119e-01 4.5199963227235379e-01  5.5410575392482109e-01 1.1852778444604883e-01 4.4011744919885670e-01  5.5083281733533596e-01 1.1164663359533487e-01 4.2919455469902779e-01  5.4951808799106761e-01 1.0832355402597559e-01 4.2488409588359455e-01  5.4844951151927146e-01 1.0490815594234872e-01 4.2157528837389407e-01  5.4798544865561860e-01 9.7732610573811579e-02 4.2203407526285963e-01  5.4909897388261131e-01 9.5658639102851092e-02 4.2744870622902803e-01  5.5105896005953225e-01 9.4515131985176207e-02 4.3613250942677861e-01  5.5390294639790338e-01 9.4233240582141498e-02 4.4823361523269728e-01  5.5782421046005348e-01 9.4906125030490909e-02 4.6446723613151264e-01  5.6298022824145122e-01 9.6740427769622939e-02 4.8525834880774243e-01  5.6998458691578668e-01 1.0016692917708234e-01 5.1278431625428289e-01  5.9568801707246921e-01 1.1733490496736462e-01 6.0839564191834161e-01  6.0901999274529650e-01 1.2866319844304916e-01 6.5399996319802600e-01  6.2274937477254277e-01 1.4235450171193090e-01 6.9704195526141111e-01  6.3710666044664632e-01 1.5901344152721836e-01 7.3720581692739495e-01  6.5200512422679979e-01 1.7893197904210473e-01 7.7317052056155677e-01  6.6719569889009156e-01 2.0209932560252547e-01 8.0341508052231836e-01  6.8232907766037465e-01 2.2819551167889277e-01 8.2658943335921464e-01  6.9698151615005732e-01 2.5649028800880252e-01 8.4189590261611946e-01  7.1070360416661749e-01 2.8580307060879107e-01 8.4947446780187408e-01  7.2305280455837884e-01 3.1464240707438224e-01 8.5029333513180427e-01  7.3364731890981183e-01 3.4131191831656077e-01 8.4621734139737348e-01  7.4215397444097742e-01 3.6408311255203124e-01 8.3953814321985354e-01  7.4833547655384403e-01 3.8141629489429418e-01 8.3269092134854794e-01  7.5206672916277528e-01 3.9220811268352124e-01 8.2771645509657821e-01  7.5294638367667988e-01 3.9477095531536738e-01 8.2649184009179044e-01  7.5210672127160949e-01 3.9225050118552784e-01 8.2784643989052398e-01  7.5092164426903873e-01 3.8873721510000769e-01 8.2968930362633886e-01  7.4945636159202345e-01 3.8450779650463124e-01 8.3177390287386532e-01  7.4807611992805267e-01 3.8075278875539176e-01 8.3338697982666599e-01  7.4627772802470926e-01 3.7684388726383172e-01 8.3392122568083582e-01  7.5222050380747307e-01 3.9424952546159664e-01 8.2543442620531682e-01  7.5670568547224359e-01 4.0800535979499009e-01 8.1770830258553506e-01  7.5988126882489482e-01 4.1802426457558634e-01 8.1159520755316128e-01  7.6184998530417303e-01 4.2434651836110354e-01 8.0754320973609861e-01  7.6166159115711451e-01 4.2373634867176618e-01 8.0794340895169092e-01  7.5902254863590857e-01 4.1527950828615401e-01 8.1332875764622092e-01  7.5470898351745941e-01 4.0175078794453928e-01 8.2140401452780221e-01  7.2856476572345286e-01 3.2982150273108046e-01 8.4951419744004786e-01  7.2169847050260871e-01 3.1373615360930762e-01 8.5166764731533418e-01  7.1519028342007085e-01 2.9991838546367683e-01 8.5126401549466446e-01  7.0859998586377593e-01 2.8733994676961178e-01 8.4853446588796511e-01  7.0182535199635454e-01 2.7588203507996323e-01 8.4344424999781664e-01  6.9487930311027868e-01 2.6575193551854631e-01 8.3584742357671227e-01  6.8789635910571734e-01 2.5748906472819788e-01 8.2565717780624914e-01  6.8108883349481042e-01 2.5192885734543263e-01 8.1280172563189157e-01  6.7456634846755248e-01 2.5014186336165067e-01 7.9679803554243245e-01  6.6391762259578613e-01 2.6787010879272299e-01 7.5145205783075475e-01  6.6176407669997450e-01 2.8412489942536334e-01 7.3031634652527788e-01  6.6037722514480857e-01 3.0369212161954173e-01 7.0749890982628660e-01  6.5925862523453282e-01 3.2615963284110483e-01 6.8168383032908875e-01  6.5791041114469417e-01 3.5067804395258589e-01 6.5202532006167246e-01  6.5594664512974921e-01 3.7613430758918071e-01 6.1839235663166403e-01  6.5302550441706808e-01 4.0112503839243174e-01 5.8123455875707419e-01  6.4891623222169448e-01 4.2411953884657105e-01 5.4160028877336908e-01  6.4353832649496967e-01 4.4365324379177090e-01 5.0099840714858146e-01  6.3698987729091139e-01 4.5845031639088746e-01 4.6128647369709663e-01  6.2958187180551628e-01 4.6775473111485361e-01 4.2438090940491607e-01  6.2194444044744568e-01 4.7153937835238674e-01 3.9244047494652118e-01  6.0850496016409727e-01 4.6531121963539024e-01 3.4878500596594519e-01  5.9734866959113841e-01 4.5207747841004092e-01 3.1948063104437324e-01  5.8328028017438005e-01 4.3010875202043664e-01 2.8612178202023442e-01  5.6564870524104971e-01 3.9606252679371029e-01 2.4803911205390422e-01  5.2487312660141017e-01 3.0484162858939440e-01 1.6490947329187497e-01  5.2021750932773581e-01 2.9570476782252936e-01 1.5418202306703485e-01  5.1841483589844628e-01 2.9274600156215519e-01 1.4957196401804201e-01  5.1837778363893039e-01 2.9268566550401159e-01 1.4947640860519565e-01  5.1949019010027042e-01 2.9394855587480928e-01 1.5273383064827556e-01  5.2025082689869628e-01 2.9317905228757490e-01 1.5610109002716099e-01  5.1894697170982762e-01 2.8583502809117234e-01 1.5636487422963957e-01  5.0873712940579496e-01 2.4812960614434634e-01 1.4408120591401452e-01  5.0361942243370850e-01 2.3056020913980751e-01 1.3668924199389559e-01  4.9957437400422117e-01 2.1734554877856865e-01 1.3027220175413437e-01  4.9692173783228205e-01 2.0891311870719731e-01 1.2586534387860235e-01  4.9604710191452356e-01 2.0612141150575411e-01 1.2441430444817536e-01  4.9673697196841571e-01 2.0816959509087782e-01 1.2566186917275288e-01  4.9870295320183605e-01 2.1392323225860588e-01 1.2926881776135629e-01  5.0192377392224297e-01 2.2243696013433201e-01 1.3577820869867896e-01  5.0450648413260279e-01 2.1263629535944883e-01 1.5211822144212209e-01  5.0157780381032213e-01 1.9366407838352251e-01 1.5341011151094833e-01  4.9902157121633450e-01 1.7703200864798038e-01 1.5432087144009973e-01  4.9709008684136741e-01 1.6347663403428203e-01 1.5546419159876051e-01  4.9584239592375978e-01 1.5362345646468925e-01 1.5679401718883074e-01  4.9543945048669213e-01 1.4567224984001131e-01 1.6014686654010957e-01  4.9602921824954055e-01 1.4169177570742669e-01 1.6489244464729411e-01  4.9722298527