<?xml version="1.0"?>
<VTKFile type="UnstructuredGrid"  version="0.1"  >
<UnstructuredGrid>
<Piece  NumberOfPoints="4940" NumberOfCells="9650">
<Points>
<DataArray  type="Float64"  NumberOfComponents="3"  format="ascii">500 250 0  0 250 0  250 500 0  250 0 0  256.8885856082646 499.9050767557906 0  263.7719401218049 499.6203791065173 0  270.6448364229772 499.1461232471188 0  277.5020553257866 498.4826693209355 0  284.3383895508592 497.6305211460281 0  291.1486476865662 496.5903258312597 0  297.9276581259182 495.3628732847843 0  304.6702729675493 493.9490956196674 0  311.3713719748657 492.3500664368026 0  318.0258664141369 490.5670000199653 0  324.6287029687753 488.6012504015818 0  331.1748675330201 486.4543103455647 0  337.6593890460416 484.1278102064655 0  344.0773432429536 481.6235166997244 0  350.4238564271474 478.9433315480048 0  356.694109139292 476.0892900492477 0  362.88333985546 473.0635595140469 0  368.9868485575419 469.8684376402048 0  375.0000003153078 466.5063507640667 0  380.9182288257928 462.9798520074548 0  386.7370398729688 459.2916193419558 0  392.4520147244077 455.444453565817 0  398.0588135356345 451.4412761437442 0  403.5531785622926 447.285127045646 0  408.9309374414144 442.9791624087773 0  414.1880064015299 438.5266521049243 0  419.3203932989752 433.9309773069245 0  424.324200661095 429.1956279150535 0  429.1956286596235 424.3241998957182 0  433.9309780058756 419.3203925397119 0  438.5266527445345 414.1880056671062 0  442.9791630130591 408.9309367076756 0  447.2851276060475 403.5531778422888 0  451.4412766621026 398.0588128303826 0  455.4444540361634 392.4520140460735 0  459.2916197786263 386.7370392045948 0  462.9798524073514 380.9182281752347 0  466.5063511234856 374.9999996927758 0  469.8684379657123 368.9868479560565 0  473.0635598144817 362.8833392617846 0  476.0892903190255 356.6941085676214 0  478.9433317963513 350.4238558609745 0  481.6235169154735 344.0773427117675 0  484.12781039012 337.6593885555221 0  486.4543105028062 331.1748670749914 0  488.601250531677 324.6287025528375 0  490.5670001317469 318.0258660188321 0  492.3500665291326 311.3713716102628 0  493.949095695951 304.6702726271575 0  495.3628733416623 297.9276578347343 0  496.5903258712341 291.1486474470129 0  497.6305211749058 284.3383893426084 0  498.4826693388848 277.502055163614 0  499.1461232580606 270.6448362909296 0  499.6203791109319 263.7719400417897 0  499.9050767571306 256.8885855596534 0  499.9050767559877 243.1114143988867 0  499.6203791069493 236.2280598860241 0  499.1461232485393 229.3551635941651 0  498.4826693235677 222.4979446979962 0  497.6305211491849 215.6616104719064 0  496.5903258357701 208.8513523404629 0  495.3628732906988 202.0723419043604 0  493.9490956264813 195.3297270628552 0  492.3500664487791 188.6286280724281 0  490.5670000344809 181.9741336371959 0  488.6012504175981 175.3712970824318 0  486.4543103623226 168.8251325157939 0  484.1278102222298 162.3406109960628 0  481.6235167152198 155.9226567951971 0  478.9433315621651 149.5761436051346 0  476.0892900516498 143.3058908657982 0  473.063559513628 137.1166601437124 0  469.8684376406648 131.0131514433083 0  466.5063507675389 124.9999996907064 0  462.9798520124137 119.0817711822745 0  459.2916193464549 113.2629601339176 0  455.4444535642773 107.5479852733717 0  451.4412761528674 101.9411864767781 0  447.2851270583545 96.44682145403524 0  442.9791624165781 91.06906256805769 0  438.5266521117469 85.81199360630404 0  433.9309773156125 80.67960671046254 0  429.1956279150353 75.67579933888632 0  424.3241998888952 70.80437133373906 0  419.3203925223282 66.06902197812161 0  414.1880056411937 61.47334723289828 0  408.9309366751728 57.0208369601728 0  403.5531778009394 52.71487236176898 0  398.058812796452 48.55872331295853 0  392.4520140187753 44.55554594490843 0  386.7370391799677 40.70838020528396 0  380.9182281475119 37.02014757560744 0  374.9999996718656 33.49364886444181 0  368.9868479340393 30.13156202237255 0  362.8833392380029 26.93644017348339 0  356.6941085456942 23.91070967062674 0  350.4238558420009 21.0566681953261 0  344.0773426899492 18.37648307566465 0  337.6593885328982 15.87218960140942 0  331.1748670549786 13.54568949032341 0  324.6287025315056 11.39874946165088 0  318.0258660010876 9.432999863235466 0  311.3713716017894 7.649933468721599 0  304.6702726190621 6.050904302234756 0  297.9276578269805 4.637126656823085 0  291.148647441857 3.409674127905504 0  284.3383893425031 2.369478825079682 0  277.502055159398 1.517330660648639 0  270.6448362875833 0.853876741662134 0  263.7719400401456 0.3796208889774277 0  256.8885855592052 0.09492324285704967 0  243.1114143979462 0.09492324403817065 0  236.2280598850882 0.3796208931023841 0  229.3551635938215 0.8538767514891958 0  222.4979446968584 1.517330676558146 0  215.6616104703111 2.369478851036291 0  208.8513523382973 3.409674164591252 0  202.0723419066374 4.637126708856528 0  195.3297270659513 6.050904372824903 0  188.628628074828 7.649933550613184 0  181.9741336377093 9.432999965373938 0  175.3712970793675 11.39874958336037 0  168.8251325057572 13.54568964112298 0  162.340610986655 15.87218978129263 0  155.9226567874317 18.37648328793418 0  149.576143602509 21.05666843898663 0  143.3058908718157 23.91070994551046 0  137.1166601505524 26.93644048291054 0  131.0131514451933 30.13156235831508 0  124.9999996848412 33.49364923584736 0  119.0817711715717 37.0201479941652 0  113.2629601211624 40.70838066187849 0  107.5479852622251 44.55554644345162 0  101.9411864693332 48.55872385260452 0  96.44682143286516 52.71487295812284 0  91.06906254351222 57.02083760363669 0  85.81199358272519 61.4733479087879 0  80.67960667988106 66.06902271253972 0  75.67579930062769 70.80437212218331 0  70.80437129287643 75.67580015310926 0  66.06902193673014 80.67960752263491 0  61.47334718684866 85.81199441168215 0  57.02083692524275 91.0690633672404 0  52.71487232786438 96.44682224262129 0  48.55872328070024 101.941187247437 0  44.55554591578033 107.5479860232332 0  40.7083801742321 113.2629608675606 0  37.02014754791168 119.0817718975441 0  33.49364883372994 125.000000381329 0  30.13156199866361 131.0131521097709 0  26.9364401549829 137.1166607985551 0  23.91070965524918 143.3058914868915 0  21.05666818346614 149.576144185037 0  18.37648306853811 155.9226573275967 0  15.8721895918909 162.3406114925245 0  13.54568948170046 168.8251329701392 0  11.39874945301878 175.3712974960928 0  9.432999857087736 181.9741340206533 0  7.649933466342702 188.6286284076045 0  6.050904301250966 195.3297273853278 0  4.637126656808988 202.0723421730917 0  3.409674127767772 208.8513525589684 0  2.369478824521138 215.6616106615248 0  1.517330660909465 222.4979448382452 0  0.8538767414496533 229.355163714981 0  0.3796208887135322 236.2280599646376 0  0.09492324266324204 243.1114144478261 0  0.0949232442452228 256.8885856095658 0  0.3796208935834784 263.7719401236316 0  0.8538767530323526 270.6448364248016 0  1.517330679476544 277.5020553295092 0  2.369478854618649 284.3383895555228 0  3.409674170191892 291.1486476952655 0  4.6371267162381 297.9276581311522 0  6.050904381420935 304.6702729724059 0  7.649933562385399 311.3713719716595 0  9.43299997979841 318.0258664133013 0  11.3987495994252 324.6287029719946 0  13.54568965885832 331.174867545904 0  15.87218979367188 337.6593890464085 0  18.37648329843151 344.0773432384132 0  21.05666844777872 350.423856417535 0  23.91070995156048 356.6941091410045 0  26.93644048988043 362.8833398632205 0  30.13156235982007 368.9868485575877 0  33.49364924138357 375.0000003247478 0  37.0201480006036 380.9182288389023 0  40.70838066758398 386.7370398875706 0  44.55554644477201 392.4520147396792 0  48.55872386086904 398.0588135419111 0  52.71487295981296 403.5531785693063 0  57.02083760525949 408.9309374584583 0  61.47334790862246 414.1880064170849 0  66.06902271205095 419.320393319588 0  70.80437211216579 424.3242006890749 0  75.67580013809859 429.195628692521 0  80.6796075127923 433.930978054209 0  85.81199439754931 438.5266528008431 0  91.06906334717917 442.9791630582355 0  96.44682221438322 447.2851276501571 0  101.9411872243843 451.441276702356 0  107.5479859945825 455.4444540643537 0  113.2629608446994 459.2916198108319 0  119.0817718768376 462.9798524393601 0  125.0000003647644 466.5063511567065 0  131.0131521012763 469.8684379967393 0  137.1166607840049 473.0635598376539 0  143.3058914748804 476.0892903390826 0  149.5761441732679 478.9433318113714 0  155.9226573130112 481.6235169255377 0  162.3406114779862 484.1278104026658 0  168.8251329570439 486.4543105138039 0  175.3712974805475 488.601250542119 0  181.9741340135204 490.5670001408953 0  188.6286284005059 492.3500665318597 0  195.3297273788229 493.9490956972913 0  202.0723421640089 495.3628733414168 0  208.8513525529672 496.5903258712308 0  215.6616106544547 497.6305211744985 0  222.4979448327038 498.4826693384772 0  229.3551637102845 499.1461232581612 0  236.2280599621369 499.6203791111485 0  243.1114144470173 499.9050767573145 0  155.2373389820306 474.8197567317462 0  25.36256300907667 153.9152755065208 0  432.3709625126712 412.6214396304305 0  6.013151705810699 246.637913163471 0  246.6379131630491 493.986848294322 0  338.6995838441862 22.68244767887072 0  477.3175523131281 338.6995838660569 0  493.9868482700757 246.6379131399102 0  246.6201155078769 6.218451882810491 0  417.6179310263282 72.7156044707053 0  102.2232990934413 445.0100869616822 0  63.66330858966404 92.20354579482142 0  391.3105220491464 50.73522820883105 0  72.79295043967942 418.0702734974704 0  448.290574428537 108.25674339002 0  402.4604651193511 440.7462829841712 0  97.55317348421397 59.11376320116034 0  136.7376477664901 33.58246472647134 0  363.3288394375288 465.6947312928271 0  44.0678766556007 381.0860953771871 0  469.6905266180034 142.3890690100806 0  22.68244791668644 338.6995843487432 0  338.699584349159 477.317552078365 0  173.389488083762 18.6681884918202 0  483.4809734778481 179.7121987795732 0  13.50237455842738 306.4709525540879 0  305.9825168523021 487.24416992
[...]
<PointData  Vectors="f_12"> 
<DataArray  type="Float64"  Name="f_12"  NumberOfComponents="3" format="ascii">4.8332679986669247e-01 1.8426476795678595e-01 9.0271106263360754e-02  4.8207808812197650e-01 1.4774382179938184e-01 1.0657721974420765e-01  5.2560808480257026e-01 4.2284600762543423e-01 7.5975130098191276e-02  5.0707962603304158e-01 8.2804584039959314e-02 2.4152607086824479e-01  5.2559063298149322e-01 4.2277351369072091e-01 7.5971162598269082e-02  5.2548601337112133e-01 4.2233683661009985e-01 7.5948489963142157e-02  5.2532544948992055e-01 4.2166604332868712e-01 7.5913917424586516e-02  5.2508768943630069e-01 4.2067067428113675e-01 7.5863523608128647e-02  5.2478725355087508e-01 4.1941041553429714e-01 7.5800269421387581e-02  5.2442551743290122e-01 4.1788897748983950e-01 7.5725123421286122e-02  5.2400557958485050e-01 4.1611711045733429e-01 7.5639222506246828e-02  5.2353345848497412e-01 4.1411776616533585e-01 7.5544519601605312e-02  5.2301040835431223e-01 4.1189395513199373e-01 7.5441715650407720e-02  5.2243707588502963e-01 4.0944516275821746e-01 7.5331850224011537e-02  5.2180270781114457e-01 4.0672226974261633e-01 7.5213620121214395e-02  5.2116150255563332e-01 4.0395586497568947e-01 7.5097761439977304e-02  5.2043749500330916e-01 4.0081368123121808e-01 7.4971711046992226e-02  5.1970496032822944e-01 3.9761460366658036e-01 7.4849511014532896e-02  5.1893419321706680e-01 3.9422730833196618e-01 7.4726491279471868e-02  5.1813581771734596e-01 3.9069547687768991e-01 7.4604911828230577e-02  5.1731480471167723e-01 3.8703757334245759e-01 7.4487005984808952e-02  5.1645467746148566e-01 3.8317572830183322e-01 7.4372016816610653e-02  5.1557208658598774e-01 3.7918299618006207e-01 7.4262357537422136e-02  5.1468311724224258e-01 3.7512872812152864e-01 7.4161009404283093e-02  5.1377307512242920e-01 3.7094402253483777e-01 7.4067101906722638e-02  5.1283680083433469e-01 3.6660012528344532e-01 7.3982054198388728e-02  5.1187636975422612e-01 3.6210463122635184e-01 7.3906191483163908e-02  5.1091931904382848e-01 3.5758198554206594e-01 7.3843909552176457e-02  5.0995022109359511e-01 3.5295705180368819e-01 7.3795183477747578e-02  5.0895660764430228e-01 3.4816785462117938e-01 7.3759715740230505e-02  5.0796633358437293e-01 3.4334316607733789e-01 7.3741530744609665e-02  5.0696424665141060e-01 3.3840692399063688e-01 7.3740752975417920e-02  5.0595701265140669e-01 3.3338870225025846e-01 7.3759351552741215e-02  5.0495168283771708e-01 3.2832118600545079e-01 7.3797622967570933e-02  5.0393228487041286e-01 3.2311830126908797e-01 7.3859005412987094e-02  5.0291768328812703e-01 3.1787159173795526e-01 7.3945207727002485e-02  5.0191272810968757e-01 3.1260530657089780e-01 7.4055546388417853e-02  5.0090203948692069e-01 3.0723349819805668e-01 7.4194762952083715e-02  4.9988964974402134e-01 3.0177092482271145e-01 7.4365776209574200e-02  4.9889275618409595e-01 2.9630757691833753e-01 7.4567025297675893e-02  4.9791153803626792e-01 2.9084096835600515e-01 7.4800694747322302e-02  4.9693449759282077e-01 2.8530259347776021e-01 7.5072085676531591e-02  4.9596689932864108e-01 2.7971808253243408e-01 7.5381779517958367e-02  4.9502041579893319e-01 2.7414495862047433e-01 7.5732290882271944e-02  4.9408931490642810e-01 2.6854852986708927e-01 7.6126034381574517e-02  4.9317858459462960e-01 2.6295318408733398e-01 7.6564595950086717e-02  4.9229132332968140e-01 2.5737302675577761e-01 7.7049468116940342e-02  4.9143128986383261e-01 2.5182318173225632e-01 7.7584643929068636e-02  4.9059063914128259e-01 2.4624985697800492e-01 7.8176192387563084e-02  4.8978256536786302e-01 2.4073571318838302e-01 7.8818960119990900e-02  4.8900561582080820e-01 2.3525803588602609e-01 7.9521972376841402e-02  4.8826175549979450e-01 2.2983604278116587e-01 8.0280953089460455e-02  4.8755270092813796e-01 2.2446515381087345e-01 8.1105381795024412e-02  4.8687830869512838e-01 2.1914421332275380e-01 8.1995812812786659e-02  4.8624336180167138e-01 2.1390245981477102e-01 8.2952095009312263e-02  4.8565020482816812e-01 2.0874875117567485e-01 8.3978106129844493e-02  4.8509565553955897e-01 2.0366031874191676e-01 8.5077319870975943e-02  4.8458475578911431e-01 1.9866248355382943e-01 8.6253620608679776e-02  4.8411683158714502e-01 1.9377013799344170e-01 8.7496892154288089e-02  4.8369551203542482e-01 1.8900624616680667e-01 8.8809850584157288e-02  4.8299111854984955e-01 1.7968230316634662e-01 9.1740718308907079e-02  4.8271020506100631e-01 1.7520943535859881e-01 9.3322747964050851e-02  4.8247877119143806e-01 1.7086110765755755e-01 9.4991855960622387e-02  4.8229191124621418e-01 1.6660796865475488e-01 9.6749467568145286e-02  4.8215759189249668e-01 1.6248939003422191e-01 9.8603797996473924e-02  4.8206815004295578e-01 1.5848429967044342e-01 1.0054142344833059e-01  4.8203032759551939e-01 1.5460421982025624e-01 1.0258206964386272e-01  4.8203966789925767e-01 1.5084521872617354e-01 1.0471429295851595e-01  4.8209746576388451e-01 1.4721106163201914e-01 1.0694299494483196e-01  4.8220328232350207e-01 1.4370377570977211e-01 1.0926777232164565e-01  4.8235554128073338e-01 1.4031255530786391e-01 1.1169133718925743e-01  4.8255467003100611e-01 1.3705926097615190e-01 1.1420551557709319e-01  4.8279895686710655e-01 1.3391396368648428e-01 1.1682299638967350e-01  4.8308781475623985e-01 1.3089506400236298e-01 1.1953380406708640e-01  4.8341974100234408e-01 1.2799563951667106e-01 1.2233864442176687e-01  4.8379391535327498e-01 1.2521756342237941e-01 1.2523563573439969e-01  4.8420825591047750e-01 1.2255579425206412e-01 1.2822215346566526e-01  4.8466210006412286e-01 1.2000807859755334e-01 1.3129901453876552e-01  4.8515370506993077e-01 1.1757120770966138e-01 1.3446351858410280e-01  4.8568078881652038e-01 1.1524531994391127e-01 1.3770895774199565e-01  4.8624192590488230e-01 1.1302357403815069e-01 1.4103549815147440e-01  4.8683437931028117e-01 1.1091640759439114e-01 1.4442886582275272e-01  4.8745781154828305e-01 1.0890537000030867e-01 1.4789910609036028e-01  4.8810638367964887e-01 1.0700126724223279e-01 1.5141948368217098e-01  4.8878102422838582e-01 1.0519230709598636e-01 1.5500111729315544e-01  4.8947858461839044e-01 1.0347794884644726e-01 1.5863315739221936e-01  4.9019626535812855e-01 1.0185560758867622e-01 1.6230705549900767e-01  4.9093164539523110e-01 1.0032334637263857e-01 1.6601493489431499e-01  4.9168078233024148e-01 9.8877975231101201e-02 1.6974385985012339e-01  4.9244293457339217e-01 9.7515853727237659e-02 1.7349278870154455e-01  4.9321354342735801e-01 9.6235136038239133e-02 1.7724516729296802e-01  4.9399021666884174e-01 9.5032424751030839e-02 1.8099318922739388e-01  4.9477210431121926e-01 9.3903086716887671e-02 1.8473576018051985e-01  4.9555257156461163e-01 9.2847520099425082e-02 1.8844581944483718e-01  4.9632538764354905e-01 9.1867460122380340e-02 1.9209678517063972e-01  4.9709733037187809e-01 9.0947931580649802e-02 1.9572358081852995e-01  4.9786171078597358e-01 9.0090515137057445e-02 1.9929734230907872e-01  4.9860666480434640e-01 8.9302436738026472e-02 2.0276533864908686e-01  4.9934223947050776e-01 8.8566632628498898e-02 2.0617701765074006e-01  5.0006548794368233e-01 8.7881239081082640e-02 2.0951981919546392e-01  5.0075631133986076e-01 8.7259596858703214e-02 2.1270390170810624e-01  5.0142594036076538e-01 8.6687780821550542e-02 2.1578085962135793e-01  5.0206776474257975e-01 8.6163618664802114e-02 2.1872452362761219e-01  5.0268309623346630e-01 8.5683907019633757e-02 2.2154019732933017e-01  5.0326543783603539e-01 8.5248734411345922e-02 2.2420033460353631e-01  5.0381422679380417e-01 8.4855005303673403e-02 2.2670302721373309e-01  5.0432561403892584e-01 8.4501605312299208e-02 2.2903193299832006e-01  5.0479687563787934e-01 8.4187114190947959e-02 2.3117544129241599e-01  5.0523064044041432e-01 8.3906909170026842e-02 2.3314615308410441e-01  5.0562499207442868e-01 8.3659327070898487e-02 2.3493632401404635e-01  5.0597414590605516e-01 8.3445759515217349e-02 2.3651999138072868e-01  5.0627547719938537e-01 8.3265894183433539e-02 2.3788571085586710e-01  5.0652843783857249e-01 8.3117962774701334e-02 2.3903143991701695e-01  5.0673908779710986e-01 8.2996758862952713e-02 2.3998510093781059e-01  5.0690022409069357e-01 8.2905282193950255e-02 2.4071436274745658e-01  5.0701549525025247e-01 8.2840468462679062e-02 2.4123588678800109e-01  5.0708327065006009e-01 8.2802691032216394e-02 2.4154250300060770e-01  5.0709431266848337e-01 8.2796141077689650e-02 2.4159263799016895e-01  5.0699652594220301e-01 8.2851185320931747e-02 2.4115006309230744e-01  5.0687620394864008e-01 8.2918920837837265e-02 2.4060565952149215e-01  5.0671368037683484e-01 8.3011442074946498e-02 2.3987006279249784e-01  5.0650328722804638e-01 8.3132886009348220e-02 2.3891734752077251e-01  5.0624852880506288e-01 8.3282288758698489e-02 2.3776332792636820e-01  5.0595663139586533e-01 8.3456931696645822e-02 2.3644023391247312e-01  5.0562412838473758e-01 8.3660242619334399e-02 2.3493220291425035e-01  5.0527470394067076e-01 8.3878845474015418e-02 2.3334629871489021e-01  5.0485886899484844e-01 8.4146563261970675e-02 2.3145718357264788e-01  5.0441849967521069e-01 8.4438813097910764e-02 2.2945473690153434e-01  5.0394883616393149e-01 8.4760975127538510e-02 2.2731621396565077e-01  5.0345874181844907e-01 8.5108107041622957e-02 2.2508242931579558e-01  5.0293758256908949e-01 8.5491171704671270e-02 2.2270349329370062e-01  5.0238455993104680e-01 8.5913540246871908e-02 2.2017512009731369e-01  5.0181471817710122e-01 8.6366875590487821e-02 2.1756499288930797e-01  5.0122663445310811e-01 8.6854182552555767e-02 2.1486641423186711e-01  5.0062258396174797e-01 8.7376944355064212e-02 2.1208847279284840e-01  5.0000345818985448e-01 8.7937226318938161e-02 2.0923437506088316e-01  4.9936828038280240e-01 8.8539783954128093e-02 2.0629821993472219e-01  4.9872203104897689e-01 8.9182479589534222e-02 2.0330219377122055e-01  4.9807035709971137e-01 8.9862940221484222e-02 2.0027132576783441e-01  4.9741387115060620e-01 9.0583881406850086e-02 1.9720691918857713e-01  4.9675282342013138e-01 9.1347990295591416e-02 1.9410899500762760e-01  4.9608960285142956e-01 9.2156158081934378e-02 1.9098708868027578e-01  4.9542574457273342e-01 9.3009702809416298e-02 1.8784704899133273e-01  4.9476369154734923e-01 9.3909267533745233e-02 1.8469853441194353e-01  4.9410455944471454e-01 9.4856664742134597e-02 1.8154526195264917e-01  4.9345058422149340e-01 9.5852358640007171e-02 1.7839597349843739e-01  4.9280318183023231e-01 9.6897671678107408e-02 1.7525564623376141e-01  4.9216530304686568e-01 9.7991706645867566e-02 1.7213630847837483e-01  4.9153728388646040e-01 9.9136253179607753e-02 1.6903833912089844e-01  4.9091907634206761e-01 1.0033689684130229e-01 1.6595806030782731e-01  4.9031154548997641e-01 1.0159452030861459e-01 1.6289842507835889e-01  4.8971743424886294e-01 1.0290904082673447e-01 1.5986973496564605e-01  4.8913813999069228e-01 1.0428069300776208e-01 1.5687693631876010e-01  4.8857500687261152e-01 1.0571039208290614e-01 1.5392424283373846e-01  4.8802841925548407e-01 1.0720090498227625e-01 1.5101114664568113e-01  4.8750026168610150e-01 1.0875271905283307e-01 1.4814386804533250e-01  4.8698669553288604e-01 1.1038310324581252e-01 1.4529799356139250e-01  4.8649381339472691e-01 1.1207583410066378e-01 1.4250461864754360e-01  4.8602398218894072e-01 1.1383152807256684e-01 1.3977168066575388e-01  4.8557276928571502e-01 1.1566672887713061e-01 1.3707270921878989e-01  4.8514338888427305e-01 1.1758160089590559e-01 1.3441866137964856e-01  4.8473648390021229e-01 1.1957784213034064e-01 1.3181027641294352e-01  4.8435610426677389e-01 1.2164015814781531e-01 1.2926987952098173e-01  4.8399756582476849e-01 1.2380871711826934e-01 1.2675717912788598e-01  4.8366663158259399e-01 1.2605974858980704e-01 1.2430531806123249e-01  4.8336096186472655e-01 1.2839948498338591e-01 1.2190121146429488e-01  4.8308622324671768e-01 1.3083401032983386e-01 1.1956088462497536e-01  4.8283758195703141e-01 1.3337707007484545e-01 1.1725804350658019e-01  4.8262015155668059e-01 1.3602670365291608e-01 1.1501088720564365e-01  4.8243421146935556e-01 1.3878287857072324e-01 1.1281909786838946e-01  4.8228120046246292e-01 1.4165085194227023e-01 1.1068346832358569e-01  4.8216185459399907e-01 1.4463292746511172e-01 1.0860381671109763e-01  4.8203091445140228e-01 1.5098518910036801e-01 1.0460470247921150e-01  4.8202150619715711e-01 1.5435122001583426e-01 1.0269184912169257e-01  4.8205235429434606e-01 1.5785572212635848e-01 1.0083806435012507e-01  4.8212350814319166e-01 1.6149934458515650e-01 9.9041175866101921e-02  4.8223731775488843e-01 1.6528760653112873e-01 9.7304459088810108e-02  4.8239496686679040e-01 1.6922770747368160e-01 9.5625948820935225e-02  4.8259812113278722e-01 1.7332055284019468e-01 9.4008923971929906e-02  4.8284788769031339e-01 1.7757152899784445e-01 9.2451985902329281e-02  4.8314596099310253e-01 1.8198364025082342e-01 9.0957195944768088e-02  4.8349338872958986e-01 1.8656041081132824e-01 8.9523816571450296e-02  4.8389210788071629e-01 1.9130170026964627e-01 8.8156574186693898e-02  4.8434133406657859e-01 1.9620700529127461e-01 8.6850476820175340e-02  4.8484299131122854e-01 2.0127368264700307e-01 8.5611650157367644e-02  4.8539900011911152e-01 2.0651739830042562e-01 8.4435189855756598e-02  4.8600635737232578e-01 2.1190896020890040e-01 8.3325693640839207e-02  4.8667114112957371e-01 2.1748603991992541e-01 8.2279296240948985e-02  4.8739162946794157e-01 2.2323374737447163e-01 8.1296774787278411e-02  4.8816207619990920e-01 2.2911330770213625e-01 8.0378992380143885e-02  4.8898907304128092e-01 2.3515138302408184e-01 7.9531283943571063e-02  4.8986694276061571e-01 2.4133138846153310e-01 7.8741229057274015e-02  4.9079941728212334e-01 2.4765737435953455e-01 7.8017647577128105e-02  4.9178164251766116e-01 2.5410556366663251e-01 7.7356574446493895e-02  4.9281352558287322e-01 2.6067652152937215e-01 7.6755424728121996e-02  4.9389337693053076e-01 2.6735567957518136e-01 7.6216104192546263e-02  4.9501563275493815e-01 2.7411512259248050e-01 7.5735570122970552e-02  4.9617829132975672e-01 2.8094265133333135e-01 7.5313716825319649e-02  4.9738292865029921e-01 2.8785215665058261e-01 7.4946262444092859e-02  4.9861541677875831e-01 2.9476609912454194e-01 7.4633649012035508e-02  4.9988272506372539e-01 3.0172438110070610e-01 7.4373719969022895e-02  5.0117371204325656e-01 3.0867550314984821e-01 7.4161526711660763e-02  5.0248383887839809e-01 3.1559728022005595e-01 7.3996776938307252e-02  5.0380884322628849e-01 3.2247285047614654e-01 7.3876289440467022e-02  5.0514262420001976e-01 3.2927758035025589e-01 7.3796717044080418e-02  5.0648201115870095e-01 3.3600065188352951e-01 7.3755369438198659e-02  5.0782428798482870e-01 3.4263441618212076e-01 7.3749421213718969e-02  5.0914896358691442e-01 3.4908694061086692e-01 7.3774219694493992e-02  5.1045505469581154e-01 3.5536032192533901e-01 7.3827459353875385e-02  5.1175503511739462e-01 3.6152201813737767e-01 7.3906164216989312e-02  5.1302027790785132e-01 3.6744420858237803e-01 7.4005452237898020e-02  5.1424634803083202e-01 3.7311380329489269e-01 7.4122764098382948e-02  5.1543796273013787e-01 3.7856272563716298e-01 7.4254474834824780e-02  5.1658222705318657e-01 3.8374056433610226e-01 7.4395927392108555e-02  5.1768083332615378e-01 3.8866115361945180e-01 7.4546595618552175e-02  5.1871225994812387e-01 3.9323965797513272e-01 7.4698146949383842e-02  5.1969107483487587e-01 3.9754579096665116e-01 7.4853277983292874e-02  5.2060078231134588e-01 4.0151611496572065e-01 7.5005614177877628e-02  5.2144472842758749e-01 4.0517298509101246e-01 7.5153256516219180e-02  5.2222309742130313e-01 4.0852353767228655e-01 7.5294932904746911e-02  5.2291355301720055e-01 4.1147648574585605e-01 7.5426381035356413e-02  5.2352470549299701e-01 4.1407645817957628e-01 7.5545810658223939e-02  5.2407017167460657e-01 4.1638665531867375e-01 7.5654801691123041e-02  5.2452781284401240e-01 4.1831683558835947e-01 7.5748281768214978e-02  5.2489839130450244e-01 4.1987441703069339e-01 7.5825486646507706e-02  5.2519331675437997e-01 4.2111101456382921e-01 7.5887346025113905e-02  5.2540858799557100e-01 4.2201202031594148e-01 7.5932896271361960e-02  5.2553954845598105e-01 4.2255935412316670e-01 7.5960760470994357e-02  5.1703023591121344e-01 3.8575176943684863e-01 7.4456613513514486e-02  4.8631664893747895e-01 1.1272335198831901e-01 1.4148119177144636e-01  5.0428389533230955e-01 3.2492060096403153e-01 7.3835733382816890e-02  4.8211454631514750e-01 1.4623358982142576e-01 1.0754647762848052e-01  5.2540920822573878e-01 4.2201409961436342e-01 7.5933458169980830e-02  5.0229737351851089e-01 8.5983408869194547e-02 2.1977516639807551e-01  4.9180763725608229e-01 2.5426679384929546e-01 7.7344067660083587e-02  4.8314098397884608e-01 1.8185294512771666e-01 9.1016108322225869e-02  5.0698404386327633e-01 8.2859203994460839e-02 2.4109308977996385e-01  4.9204029451598119e-01 9.8224734084430498e-02 1.7151641518191690e-01  5.0570294951338135e-01 3.3210110236705864e-01 7.3776045358128539e-02  4.9243969472882254e-01 9.7514776878472223e-02 1.7348045812557905e-01  4.9598232983954382e-01 9.2296290731775019e-02 1.9047802308452250e-01  4.9799557254252269e-01 2.9130537059912764e-01 7.4784769459775122e-02  4.8714198977179268e-01 1.0990231475863674e-01 1.4615145576892860e-01  5.1035936831273598e-01 3.5491505871172579e-01 7.3814673877042256e-02  4.9705752203236847e-01 9.0992099047802061e-02 1.9553789100113622e-01  5.0144914983634314e-01 8.6668466757849685e-02 2.1588756606607448e-01  5.1669738243529773e-01 3.8426836658559710e-01 7.4404407526265398e-02  4.9037326337278631e-01 2.4478739125646656e-01 7.8338763742980155e-02  4.8400606440652200e-01 1.2381294664229739e-01 1.2678691142592641e-01  4.8510973418972553e-01 2.0383350268754896e-01 8.5024531988491067e-02  5.1993384130710441e-01 3.9861520602393463e-01 7.4888041185252593e-02  5.0449734693286841e-01 8.4386559272289927e-02 2.2981287583200677e-01  4.8229205996770275e-01 1.4160128760354390e-01 1.1075046434562970e-01  4.8299413915466100e-01 1.7979492623200050e-01 9.1686759293202913e-02  5.2314967609520413e-01 4.1248565723529090e-01 7.5469810322104883e-02  5.2242992143347977e-01 4.0940912975375238e-01 7.5334796966550530e-02  4.8381947923366697e-01 1.2499374690241775e-01 1.2545175712107251e-01  5.0533391822923135e-01 8.3842465705033828e-02 2.3361458487431822e-01  4.8718225770219287e-01 2.2156905891737522e-01 8.1581282858958049e-02  4.9850695792187927e-01 2.9416703867274852e-01 7.4655915971932607e-02  5.0626343817370667e-01 8.3274349268257858e-02 2.3783042629636258e-01  4.8204076442731464e-01 1.5620735294399676e-01 1.0172155054162747e-01  4.8217678195172770e-01 1.6341342706881018e-01 9.8149950359980656e-02  5.2477760397461926e-01 4.1936868448914760e-01 7.5799158071556821e-02  4.9890003546338774e-01 8.9006276064718587e-02 2.0412642767171119e-01  4.8882710942708107e-01 1.0506016611081080e-01 1.5525055215173283e-01  5.2456559527680136e-01 4.1847484948102598e-01 7.5756962553945054e-02  5.1225723904888520e-01 3.6388213149233434e-01 7.3943470992260243e-02  4.8269682340119657e-01 1.3504243934908194e-01 1.1583074030752721e-01  5.0651748156378618e-01 8.3125384488392032e-02 2.3898126873756367e-01  4.8487510639611225e-01 2.0153551886991491e-01 8.5568072424111019e-02  5.1312302926511943e-01 3.6793149942017200e-01 7.4007640476665346e-02  4.8935055335518324e-01 2.3771061625458517e-01 7.9200191010659685e-02  5.0684031176928845e-01 8.2940230092259107e-02 2.4044275028449602e-01  5.0398101124065819e-01 8.4739328979583459e-02 2.2746242269009101e-01  4.8237274529308760e-01 1.6858024169899885e-01 9.5916004338753288e-02  4.8984570429597457e-01 1.0263414882693492e-01 1.6051846947270626e-01  5.2003194193561453e-01 3.9903558857219573e-01 7.4910215520206463e-02  5.0128668083850847e-01 3.0928751356250173e-01 7.4138752632891158e-02  4.9447893888908151e-01 2.7090351246166422e-01 7.5956723465548714e-02  4.9897655790787682e-01 8.8927188500643600e-02 2.0448259570733196e-01  4.8781216515411713e-01 2.2647309263370935e-01 8.0781419189423734e-02  4.8492325136980502e-01 1.1864375034744098e-01 1.3301666586982699e-01  4.9542921240414811e-01 2.7656421432512951e-01 7.5575941034430993e-02  5.0176621041