<?xml version="1.0"?>
<VTKFile type="UnstructuredGrid"  version="0.1"  >
<UnstructuredGrid>
<Piece  NumberOfPoints="4940" NumberOfCells="9650">
<Points>
<DataArray  type="Float64"  NumberOfComponents="3"  format="ascii">500 250 0  0 250 0  250 500 0  250 0 0  256.8885856082646 499.9050767557906 0  263.7719401218049 499.6203791065173 0  270.6448364229772 499.1461232471188 0  277.5020553257866 498.4826693209355 0  284.3383895508592 497.6305211460281 0  291.1486476865662 496.5903258312597 0  297.9276581259182 495.3628732847843 0  304.6702729675493 493.9490956196674 0  311.3713719748657 492.3500664368026 0  318.0258664141369 490.5670000199653 0  324.6287029687753 488.6012504015818 0  331.1748675330201 486.4543103455647 0  337.6593890460416 484.1278102064655 0  344.0773432429536 481.6235166997244 0  350.4238564271474 478.9433315480048 0  356.694109139292 476.0892900492477 0  362.88333985546 473.0635595140469 0  368.9868485575419 469.8684376402048 0  375.0000003153078 466.5063507640667 0  380.9182288257928 462.9798520074548 0  386.7370398729688 459.2916193419558 0  392.4520147244077 455.444453565817 0  398.0588135356345 451.4412761437442 0  403.5531785622926 447.285127045646 0  408.9309374414144 442.9791624087773 0  414.1880064015299 438.5266521049243 0  419.3203932989752 433.9309773069245 0  424.324200661095 429.1956279150535 0  429.1956286596235 424.3241998957182 0  433.9309780058756 419.3203925397119 0  438.5266527445345 414.1880056671062 0  442.9791630130591 408.9309367076756 0  447.2851276060475 403.5531778422888 0  451.4412766621026 398.0588128303826 0  455.4444540361634 392.4520140460735 0  459.2916197786263 386.7370392045948 0  462.9798524073514 380.9182281752347 0  466.5063511234856 374.9999996927758 0  469.8684379657123 368.9868479560565 0  473.0635598144817 362.8833392617846 0  476.0892903190255 356.6941085676214 0  478.9433317963513 350.4238558609745 0  481.6235169154735 344.0773427117675 0  484.12781039012 337.6593885555221 0  486.4543105028062 331.1748670749914 0  488.601250531677 324.6287025528375 0  490.5670001317469 318.0258660188321 0  492.3500665291326 311.3713716102628 0  493.949095695951 304.6702726271575 0  495.3628733416623 297.9276578347343 0  496.5903258712341 291.1486474470129 0  497.6305211749058 284.3383893426084 0  498.4826693388848 277.502055163614 0  499.1461232580606 270.6448362909296 0  499.6203791109319 263.7719400417897 0  499.9050767571306 256.8885855596534 0  499.9050767559877 243.1114143988867 0  499.6203791069493 236.2280598860241 0  499.1461232485393 229.3551635941651 0  498.4826693235677 222.4979446979962 0  497.6305211491849 215.6616104719064 0  496.5903258357701 208.8513523404629 0  495.3628732906988 202.0723419043604 0  493.9490956264813 195.3297270628552 0  492.3500664487791 188.6286280724281 0  490.5670000344809 181.9741336371959 0  488.6012504175981 175.3712970824318 0  486.4543103623226 168.8251325157939 0  484.1278102222298 162.3406109960628 0  481.6235167152198 155.9226567951971 0  478.9433315621651 149.5761436051346 0  476.0892900516498 143.3058908657982 0  473.063559513628 137.1166601437124 0  469.8684376406648 131.0131514433083 0  466.5063507675389 124.9999996907064 0  462.9798520124137 119.0817711822745 0  459.2916193464549 113.2629601339176 0  455.4444535642773 107.5479852733717 0  451.4412761528674 101.9411864767781 0  447.2851270583545 96.44682145403524 0  442.9791624165781 91.06906256805769 0  438.5266521117469 85.81199360630404 0  433.9309773156125 80.67960671046254 0  429.1956279150353 75.67579933888632 0  424.3241998888952 70.80437133373906 0  419.3203925223282 66.06902197812161 0  414.1880056411937 61.47334723289828 0  408.9309366751728 57.0208369601728 0  403.5531778009394 52.71487236176898 0  398.058812796452 48.55872331295853 0  392.4520140187753 44.55554594490843 0  386.7370391799677 40.70838020528396 0  380.9182281475119 37.02014757560744 0  374.9999996718656 33.49364886444181 0  368.9868479340393 30.13156202237255 0  362.8833392380029 26.93644017348339 0  356.6941085456942 23.91070967062674 0  350.4238558420009 21.0566681953261 0  344.0773426899492 18.37648307566465 0  337.6593885328982 15.87218960140942 0  331.1748670549786 13.54568949032341 0  324.6287025315056 11.39874946165088 0  318.0258660010876 9.432999863235466 0  311.3713716017894 7.649933468721599 0  304.6702726190621 6.050904302234756 0  297.9276578269805 4.637126656823085 0  291.148647441857 3.409674127905504 0  284.3383893425031 2.369478825079682 0  277.502055159398 1.517330660648639 0  270.6448362875833 0.853876741662134 0  263.7719400401456 0.3796208889774277 0  256.8885855592052 0.09492324285704967 0  243.1114143979462 0.09492324403817065 0  236.2280598850882 0.3796208931023841 0  229.3551635938215 0.8538767514891958 0  222.4979446968584 1.517330676558146 0  215.6616104703111 2.369478851036291 0  208.8513523382973 3.409674164591252 0  202.0723419066374 4.637126708856528 0  195.3297270659513 6.050904372824903 0  188.628628074828 7.649933550613184 0  181.9741336377093 9.432999965373938 0  175.3712970793675 11.39874958336037 0  168.8251325057572 13.54568964112298 0  162.340610986655 15.87218978129263 0  155.9226567874317 18.37648328793418 0  149.576143602509 21.05666843898663 0  143.3058908718157 23.91070994551046 0  137.1166601505524 26.93644048291054 0  131.0131514451933 30.13156235831508 0  124.9999996848412 33.49364923584736 0  119.0817711715717 37.0201479941652 0  113.2629601211624 40.70838066187849 0  107.5479852622251 44.55554644345162 0  101.9411864693332 48.55872385260452 0  96.44682143286516 52.71487295812284 0  91.06906254351222 57.02083760363669 0  85.81199358272519 61.4733479087879 0  80.67960667988106 66.06902271253972 0  75.67579930062769 70.80437212218331 0  70.80437129287643 75.67580015310926 0  66.06902193673014 80.67960752263491 0  61.47334718684866 85.81199441168215 0  57.02083692524275 91.0690633672404 0  52.71487232786438 96.44682224262129 0  48.55872328070024 101.941187247437 0  44.55554591578033 107.5479860232332 0  40.7083801742321 113.2629608675606 0  37.02014754791168 119.0817718975441 0  33.49364883372994 125.000000381329 0  30.13156199866361 131.0131521097709 0  26.9364401549829 137.1166607985551 0  23.91070965524918 143.3058914868915 0  21.05666818346614 149.576144185037 0  18.37648306853811 155.9226573275967 0  15.8721895918909 162.3406114925245 0  13.54568948170046 168.8251329701392 0  11.39874945301878 175.3712974960928 0  9.432999857087736 181.9741340206533 0  7.649933466342702 188.6286284076045 0  6.050904301250966 195.3297273853278 0  4.637126656808988 202.0723421730917 0  3.409674127767772 208.8513525589684 0  2.369478824521138 215.6616106615248 0  1.517330660909465 222.4979448382452 0  0.8538767414496533 229.355163714981 0  0.3796208887135322 236.2280599646376 0  0.09492324266324204 243.1114144478261 0  0.0949232442452228 256.8885856095658 0  0.3796208935834784 263.7719401236316 0  0.8538767530323526 270.6448364248016 0  1.517330679476544 277.5020553295092 0  2.369478854618649 284.3383895555228 0  3.409674170191892 291.1486476952655 0  4.6371267162381 297.9276581311522 0  6.050904381420935 304.6702729724059 0  7.649933562385399 311.3713719716595 0  9.43299997979841 318.0258664133013 0  11.3987495994252 324.6287029719946 0  13.54568965885832 331.174867545904 0  15.87218979367188 337.6593890464085 0  18.37648329843151 344.0773432384132 0  21.05666844777872 350.423856417535 0  23.91070995156048 356.6941091410045 0  26.93644048988043 362.8833398632205 0  30.13156235982007 368.9868485575877 0  33.49364924138357 375.0000003247478 0  37.0201480006036 380.9182288389023 0  40.70838066758398 386.7370398875706 0  44.55554644477201 392.4520147396792 0  48.55872386086904 398.0588135419111 0  52.71487295981296 403.5531785693063 0  57.02083760525949 408.9309374584583 0  61.47334790862246 414.1880064170849 0  66.06902271205095 419.320393319588 0  70.80437211216579 424.3242006890749 0  75.67580013809859 429.195628692521 0  80.6796075127923 433.930978054209 0  85.81199439754931 438.5266528008431 0  91.06906334717917 442.9791630582355 0  96.44682221438322 447.2851276501571 0  101.9411872243843 451.441276702356 0  107.5479859945825 455.4444540643537 0  113.2629608446994 459.2916198108319 0  119.0817718768376 462.9798524393601 0  125.0000003647644 466.5063511567065 0  131.0131521012763 469.8684379967393 0  137.1166607840049 473.0635598376539 0  143.3058914748804 476.0892903390826 0  149.5761441732679 478.9433318113714 0  155.9226573130112 481.6235169255377 0  162.3406114779862 484.1278104026658 0  168.8251329570439 486.4543105138039 0  175.3712974805475 488.601250542119 0  181.9741340135204 490.5670001408953 0  188.6286284005059 492.3500665318597 0  195.3297273788229 493.9490956972913 0  202.0723421640089 495.3628733414168 0  208.8513525529672 496.5903258712308 0  215.6616106544547 497.6305211744985 0  222.4979448327038 498.4826693384772 0  229.3551637102845 499.1461232581612 0  236.2280599621369 499.6203791111485 0  243.1114144470173 499.9050767573145 0  155.2373389820306 474.8197567317462 0  25.36256300907667 153.9152755065208 0  432.3709625126712 412.6214396304305 0  6.013151705810699 246.637913163471 0  246.6379131630491 493.986848294322 0  338.6995838441862 22.68244767887072 0  477.3175523131281 338.6995838660569 0  493.9868482700757 246.6379131399102 0  246.6201155078769 6.218451882810491 0  417.6179310263282 72.7156044707053 0  102.2232990934413 445.0100869616822 0  63.66330858966404 92.20354579482142 0  391.3105220491464 50.73522820883105 0  72.79295043967942 418.0702734974704 0  448.290574428537 108.25674339002 0  402.4604651193511 440.7462829841712 0  97.55317348421397 59.11376320116034 0  136.7376477664901 33.58246472647134 0  363.3288394375288 465.6947312928271 0  44.0678766556007 381.0860953771871 0  469.6905266180034 142.3890690100806 0  22.68244791668644 338.6995843487432 0  338.699584349159 477.317552078365 0  173.389488083762 18.6681884918202 0  483.4809734778481 179.7121987795732 0  13.50237455842738 306.4709525540879 0  305.9825168523021 487.24416992
[...]
<PointData  Vectors="f_12"> 
<DataArray  type="Float64"  Name="f_12"  NumberOfComponents="3" format="ascii">5.2471397426076916e-01 4.1905645134486086e-01 7.5821566527544126e-02  5.0731456526224850e-01 3.4019282988059213e-01 7.3704363580255644e-02  6.2814763323163947e-01 7.1520450926622980e-01 1.2575280653162785e-01  4.8215536642838835e-01 1.6358770310818491e-01 9.7975145515113132e-02  6.2809475619874122e-01 7.1511420948015947e-01 1.2571327857689499e-01  6.2786714020522372e-01 7.1472085975159483e-01 1.2554598795776747e-01  6.2756504410430169e-01 7.1419830474492030e-01 1.2532409538223099e-01  6.2711385993571389e-01 7.1341375872810131e-01 1.2499527804517947e-01  6.2655611504640840e-01 7.1243867771775193e-01 1.2458946317866931e-01  6.2589029876591407e-01 7.1126707269655365e-01 1.2410698419085907e-01  6.2512306388482031e-01 7.0990588892008188e-01 1.2355414963556169e-01  6.2426932874566510e-01 7.0837757481316044e-01 1.2294301449693458e-01  6.2332689780162653e-01 7.0667427964229312e-01 1.2227283039428306e-01  6.2229375436172218e-01 7.0478606380391873e-01 1.2154371852941445e-01  6.2112314817237768e-01 7.0262084577960637e-01 1.2072502490125164e-01  6.1999361482050686e-01 7.0050791775266041e-01 1.1994091030245724e-01  6.1864307601570712e-01 6.9794512532721009e-01 1.1901351209101345e-01  6.1731833396286706e-01 6.9539544414072729e-01 1.1811364396210601e-01  6.1590925052741996e-01 6.9264535101451929e-01 1.1716648198463238e-01  6.1444640790028060e-01 6.8974871153665285e-01 1.1619233140576778e-01  6.1294243921145963e-01 6.8672474666623151e-01 1.1520222913629631e-01  6.1133600609682504e-01 6.8344110769675848e-01 1.1415989670399279e-01  6.0967370820657552e-01 6.7999006074147872e-01 1.1309416292339727e-01  6.0801238564906201e-01 6.7648337639206491e-01 1.1204164161443761e-01  6.0629280633216287e-01 6.7279410582064003e-01 1.1096657347092005e-01  6.0449381241268774e-01 6.6886618552956423e-01 1.0985797691546330e-01  6.0261151070039876e-01 6.6468520607382653e-01 1.0871364380341708e-01  6.0074411392389193e-01 6.6046332931225260e-01 1.0759515247279787e-01  5.9883405593209016e-01 6.5606710789595712e-01 1.0646864862930011e-01  5.9682528231696619e-01 6.5135996650466910e-01 1.0530163178167627e-01  5.9481730155432566e-01 6.4656805558618280e-01 1.0415435175740299e-01  5.9275230916802724e-01 6.4154648572027773e-01 1.0299409369339631e-01  5.9064436365027984e-01 6.3632677669553883e-01 1.0182973119465669e-01  5.8852087179577117e-01 6.3096968240802331e-01 1.0067577517931962e-01  5.8631245880223282e-01 6.2529041698252497e-01 9.9497589100557976e-02  5.8408299046175238e-01 6.1944837999066593e-01 9.8330781479144980e-02  5.8185453902661322e-01 6.1349773767049065e-01 9.7184683269319477e-02  5.7955842973871041e-01 6.0724710403724591e-01 9.6027595792306686e-02  5.7720037881650565e-01 6.0070177870701147e-01 9.4864838520883954e-02  5.7484588218330057e-01 5.9403947988080574e-01 9.3727378468701911e-02  5.7249692944544406e-01 5.8726412460735244e-01 9.2616664215388583e-02  5.7009575471546470e-01 5.8020374677208519e-01 9.1506427931732831e-02  5.6765196804629348e-01 5.7287993182779728e-01 9.0401211593676353e-02  5.6521536112687776e-01 5.6543375519147177e-01 8.9327457376063180e-02  5.6275612659325280e-01 5.5777200465747545e-01 8.8270856343712442e-02  5.6028680256384067e-01 5.4993208484011646e-01 8.7235921040542452e-02  5.5781790521147967e-01 5.4194277606524766e-01 8.6228748196463159e-02  5.5535881654513353e-01 5.3383359083766291e-01 8.5255825271501121e-02  5.5286641632956912e-01 5.2545647557065367e-01 8.4297003431020326e-02  5.5039597385848837e-01 5.1699976017063243e-01 8.3375643279567035e-02  5.4793963192135653e-01 5.0842979779829023e-01 8.2491237701019543e-02  5.4549635214410952e-01 4.9975115560515271e-01 8.1639473121497899e-02  5.4307527264230471e-01 4.9099129791821228e-01 8.0827812789359146e-02  5.4066088538261703e-01 4.8209678541505041e-01 8.0049217415635629e-02  5.3827849324139221e-01 4.7316128325624746e-01 7.9312633880619390e-02  5.3593452470464309e-01 4.6421077080366457e-01 7.8621805538118539e-02  5.3361103080325367e-01 4.5518197172146330e-01 7.7968270148260355e-02  5.3132510239093411e-01 4.4614161674398317e-01 7.7360665387579033e-02  5.2908307410940558e-01 4.3712612475607798e-01 7.6791694255181314e-02  5.2690685247234537e-01 4.2822691610134739e-01 7.6281990647192086e-02  5.2260399356487863e-01 4.1013783312572843e-01 7.5381823805371034e-02  5.2054606598398678e-01 4.0126749953441748e-01 7.5006967991742390e-02  5.1854977333297836e-01 3.9250932188133608e-01 7.4685555440931028e-02  5.1658837985209838e-01 3.8376536881557655e-01 7.4400510841208078e-02  5.1469199842334457e-01 3.7515548810072502e-01 7.4174712440897808e-02  5.1284790180333595e-01 3.6664718491190035e-01 7.3988659614206725e-02  5.1106560872973794e-01 3.5827125255786607e-01 7.3858414332301461e-02  5.0934071024156857e-01 3.5002472546738100e-01 7.3773950048228884e-02  5.0767730852903825e-01 3.4192922922832059e-01 7.3738592043790380e-02  5.0607729426653014e-01 3.3399879889520268e-01 7.3752835322732385e-02  5.0453373654376166e-01 3.2620925745950091e-01 7.3812571563127261e-02  5.0305960433481756e-01 3.1862582092266101e-01 7.3922313334417691e-02  5.0164095906373696e-01 3.1119002926572170e-01 7.4077408517735213e-02  5.0028514406570568e-01 3.0394164941051960e-01 7.4279010043618254e-02  4.9899033007718985e-01 2.9687962658982309e-01 7.4525300552043192e-02  4.9775803469768204e-01 2.9001566968319037e-01 7.4817144219927981e-02  4.9658570829729015e-01 2.8334624464872321e-01 7.5151225134668209e-02  4.9547283781727203e-01 2.7687241250416034e-01 7.5528268963153469e-02  4.9441786200587223e-01 2.7059345210638391e-01 7.5946362769213627e-02  4.9342063228445920e-01 2.6451643034330019e-01 7.6403429281779692e-02  4.9247756035571855e-01 2.5862829831069889e-01 7.6898187912328900e-02  4.9159435463737750e-01 2.5296523821986910e-01 7.7429763522276970e-02  4.9076157814759214e-01 2.4748304081018099e-01 7.7996891652587996e-02  4.8998395354160484e-01 2.4222002819996669e-01 7.8594020046526991e-02  4.8925602611170144e-01 2.3714821148153861e-01 7.9222347727173695e-02  4.8857702826991062e-01 2.3227151751043246e-01 7.9879137783637352e-02  4.8794533135032764e-01 2.2758865477090365e-01 8.0561782159848508e-02  4.8735959825449621e-01 2.2309866030809036e-01 8.1268485752152841e-02  4.8681804250680316e-01 2.1880407572877797e-01 8.1993546838493858e-02  4.8631840566957457e-01 2.1469316435514346e-01 8.2738404830047282e-02  4.8585916413359315e-01 2.1076980359573658e-01 8.3497192053507988e-02  4.8543819162605445e-01 2.0702844256691119e-01 8.4267759276687754e-02  4.8505256362609728e-01 2.0345392856769598e-01 8.5050606833699804e-02  4.8470236406546691e-01 2.0006598716490645e-01 8.5836032171107690e-02  4.8438725575504854e-01 1.9687609851866844e-01 8.6617638772232858e-02  4.8409953122746269e-01 1.9382393537626122e-01 8.7405509149979715e-02  4.8383985507117039e-01 1.9093098209482948e-01 8.8190753325832497e-02  4.8361039640022729e-01 1.8823820481435108e-01 8.8958101845689377e-02  4.8340294612115126e-01 1.8567369710417050e-01 8.9721978714572520e-02  4.8321655963762000e-01 1.8324046665630844e-01 9.0478497985480646e-02  4.8305546869666871e-01 1.8101309835346513e-01 9.1199954602697239e-02  4.8291318422208485e-01 1.7891987645598589e-01 9.1906278563780114e-02  4.8278828340128271e-01 1.7697596410098404e-01 9.2584380640235442e-02  4.8267903203681239e-01 1.7516549672218076e-01 9.3238146904146724e-02  4.8258454459076167e-01 1.7349918907044556e-01 9.3858846168256044e-02  4.8250306410037092e-01 1.7196719004079231e-01 9.4446575846828210e-02  4.8243352024400182e-01 1.7057398380958519e-01 9.4995516280269324e-02  4.8237478452274213e-01 1.6931983004856233e-01 9.5502021272019955e-02  4.8232483637720969e-01 1.6818459064694227e-01 9.5970822148400706e-02  4.8228258282942343e-01 1.6716746103889865e-01 9.6398839641310782e-02  4.8224792566508828e-01 1.6628348998195619e-01 9.6777514732575634e-02  4.8222025379452621e-01 1.6553407871449738e-01 9.7104104391749463e-02  4.8219861936509029e-01 1.6491540964300364e-01 9.7377696839148958e-02  4.8218130978617180e-01 1.6440026361870827e-01 9.7607787179395722e-02  4.8216876175603623e-01 1.6401290590637108e-01 9.7782328305990193e-02  4.8216000736179077e-01 1.6373687904481043e-01 9.7907317175010763e-02  4.8215569391724572e-01 1.6359265545405025e-01 9.7973496664447379e-02  4.8215338386856432e-01 1.6353497943358725e-01 9.7997922340477633e-02  4.8216196743987128e-01 1.6379723214529016e-01 9.7880144645833500e-02  4.8217127252129105e-01 1.6409121389917750e-01 9.7746964148610213e-02  4.8218421214518264e-01 1.6448695032572988e-01 9.7569041126631881e-02  4.8220194685026624e-01 1.6500710939616992e-01 9.7337590254457484e-02  4.8222464892996553e-01 1.6564641783417125e-01 9.7056046495846662e-02  4.8225202635937942e-01 1.6638113046667147e-01 9.6736666762873458e-02  4.8228535820997825e-01 1.6723091235440751e-01 9.6372645645772151e-02  4.8232140421886305e-01 1.6811048563375264e-01 9.6000800299006553e-02  4.8236994366461350e-01 1.6921685820119123e-01 9.5543509967696186e-02  4.8242491898425033e-01 1.7039740740298259e-01 9.5065693928384501e-02  4.8248837972397723e-01 1.7168024795935924e-01 9.4558472512763003e-02  4.8255908215791921e-01 1.7303693755551144e-01 9.4033291185472809e-02  4.8264112284559124e-01 1.7451759567917907e-01 9.3475612428190760e-02  4.8273639503713023e-01 1.7613749783494689e-01 9.2882926138486713e-02  4.8284257568201838e-01 1.7784308066773652e-01 9.2277269670820478e-02  4.8296124619914382e-01 1.7965016810003398e-01 9.1654684101452000e-02  4.8309349531884138e-01 1.8155885330938767e-01 9.1018459178006550e-02  4.8324062017505315e-01 1.8357449789167984e-01 9.0369544936956869e-02  4.8340495724148674e-01 1.8571240448785625e-01 8.9706605040738407e-02  4.8358635475289702e-01 1.8796208808385997e-01 8.9034623332283291e-02  4.8378412298546630e-01 1.9030457102977391e-01 8.8361533443017296e-02  4.8399985252734856e-01 1.9274737816862134e-01 8.7687928541904880e-02  4.8423511039101219e-01 1.9529964027519311e-01 8.7013248305505178e-02  4.8449063866364633e-01 1.9795943145377687e-01 8.6340485510856449e-02  4.8476742020520908e-01 2.0072907267368081e-01 8.5670934455652034e-02  4.8506603869250392e-01 2.0360547870780143e-01 8.5007674554052975e-02  4.8538764395874961e-01 2.0659267011740789e-01 8.4351495591595285e-02  4.8573275854571479e-01 2.0968813826349864e-01 8.3704878138240443e-02  4.8610221329617836e-01 2.1289296354612791e-01 8.3069184268609861e-02  4.8649564384938543e-01 2.1619804613923205e-01 8.2447783222659013e-02  4.8691412683422092e-01 2.1960861561749992e-01 8.1840350483453644e-02  4.8735986051763541e-01 2.2313384007813261e-01 8.1248099819063946e-02  4.8783455320894442e-01 2.2678477176985351e-01 8.0669183984317536e-02  4.8833753787908046e-01 2.3054867874780877e-01 8.0107965592296201e-02  4.8886919652064503e-01 2.3442453791429854e-01 7.9565409759721706e-02  4.8942981625995313e-01 2.3841064200179599e-01 7.9042537691507250e-02  4.9002053268392393e-01 2.4251091872501690e-01 7.8539699276503144e-02  4.9064140607295537e-01 2.4672030836596395e-01 7.8059332681039123e-02  4.9130183160535551e-01 2.5109738457254310e-01 7.7595588278704872e-02  4.9199336834187818e-01 2.5558334633292912e-01 7.7155335889348003e-02  4.9271453160043083e-01 2.6016252187591493e-01 7.6741952211737838e-02  4.9347540040614085e-01 2.6489930156979624e-01 7.6347964972168475e-02  4.9427594434049049e-01 2.6978324647323543e-01 7.5978526567166610e-02  4.9511605661777175e-01 2.7481143381926709e-01 7.5633183565140955e-02  4.9598598750027117e-01 2.7992375097745986e-01 7.5316116624742094e-02  4.9691058425487422e-01 2.8525679328701758e-01 7.5021965601438159e-02  4.9787279424323866e-01 2.9070783423464130e-01 7.4757290795908218e-02  4.9887840580321480e-01 2.9631307705923360e-01 7.4516205028324220e-02  4.9992704900662510e-01 3.0205098600629193e-01 7.4310166946940814e-02  5.0102883356401973e-01 3.0798625378547884e-01 7.4127984823762635e-02  5.0218195597096960e-01 3.1409343364613013e-01 7.3978452983014559e-02  5.0338438993694123e-01 3.2035967824857076e-01 7.3860148018211946e-02  5.0463859323918592e-01 3.2679186110044228e-01 7.3774415087144926e-02  5.0594654026116870e-01 3.3339546776079720e-01 7.3721392997779175e-02  5.0874314874702842e-01 3.4718151094442157e-01 7.3722863941381916e-02  5.1022903078706139e-01 3.5433920034305966e-01 7.3777553865023798e-02  5.1177776860367863e-01 3.6168218250490858e-01 7.3872872263203396e-02  5.1339048280809640e-01 3.6921246539255725e-01 7.4006327721244616e-02  5.1506914618315058e-01 3.7692843245343804e-01 7.4181917503052128e-02  5.1681647681559884e-01 3.8483508729709354e-01 7.4400197783172931e-02  5.1863260867319094e-01 3.9292345069857676e-01 7.4663438114737926e-02  5.2051958893281436e-01 4.0119465395768600e-01 7.4972088898431669e-02  5.2247850144803576e-01 4.0964322688962840e-01 7.5328549517001880e-02  5.2451045651230543e-01 4.1826435560761605e-01 7.5733745948420195e-02  5.2661566293557016e-01 4.2704690121405303e-01 7.6191545060624102e-02  5.2879235803062830e-01 4.3597776943623656e-01 7.6698069918882311e-02  5.3104054355156294e-01 4.4504310710855638e-01 7.7258420355628257e-02  5.3336591345622786e-01 4.5425620435934705e-01 7.7874552759098312e-02  5.3575504492007875e-01 4.6355491400685100e-01 7.8542832719961653e-02  5.3822734714008358e-01 4.7299955688780848e-01 7.9273097675981688e-02  5.4077294197634163e-01 4.8254330094472969e-01 8.0062759844872489e-02  5.4337133381878100e-01 4.9210098959132970e-01 8.0902225670422490e-02  5.4604089953270296e-01 5.0172540456863146e-01 8.1808223455073256e-02  5.4876862645015823e-01 5.1136643579462349e-01 8.2766466237077271e-02  5.5155922888525921e-01 5.2102501847458704e-01 8.3788524803572809e-02  5.5440235412195982e-01 5.3065878089387797e-01 8.4868620762545879e-02  5.5729725971090571e-01 5.4025760133617062e-01 8.6006608360519946e-02  5.6023981727035199e-01 5.4979860520530732e-01 8.7204464097277043e-02  5.6321004635919136e-01 5.5921306130972326e-01 8.8452855900204713e-02  5.6621224052886820e-01 5.6850896918239147e-01 8.9755518130001419e-02  5.6924962029422776e-01 5.7769641611638090e-01 9.1113928753548415e-02  5.7228217592560737e-01 5.8664824056989684e-01 9.2510644006788781e-02  5.7533946556362181e-01 5.9545385236615311e-01 9.3961793275392086e-02  5.7839030228809518e-01 6.0402594200098603e-01 9.5447921571937933e-02  5.8142521176494411e-01 6.1234186250863876e-01 9.6967524067118935e-02  5.8444039566205574e-01 6.2039537120039712e-01 9.8517880633175306e-02  5.8742376491152015e-01 6.2816330203492843e-01 1.0009102973402381e-01  5.9037423901847441e-01 6.3565002793141934e-01 1.0168640627563408e-01  5.9329097504359274e-01 6.4286290532793333e-01 1.0330171430826823e-01  5.9611270206630473e-01 6.4966567202355541e-01 1.0490019471652176e-01  5.9885606544908998e-01 6.5611291545748773e-01 1.0649055452225134e-01  6.0156919352227700e-01 6.6233149483246323e-01 1.0809658478200210e-01  6.0416561129217139e-01 6.6813671465074720e-01 1.0966623231597285e-01  6.0664471150880805e-01 6.7354537822033544e-01 1.1119693894421860e-01  6.0903296082122560e-01 6.7863559793450579e-01 1.1269841205504556e-01  6.1129683865597317e-01 6.8335227704583301e-01 1.1414657759479942e-01  6.1345607700309723e-01 6.8775237985294024e-01 1.1555271115009288e-01  6.1544448587713452e-01 6.9172110444879387e-01 1.1686618266230084e-01  6.1732723544822499e-01 6.9540427547817740e-01 1.1813043806753926e-01  6.1905325602750616e-01 6.9871798961117759e-01 1.1930585368793535e-01  6.2064264262285540e-01 7.0171673840064708e-01 1.2039985527899330e-01  6.2210217323527406e-01 7.0442774707136846e-01 1.2141506003439152e-01  6.2336986580716580e-01 7.0674710507462490e-01 1.2230933909796612e-01  6.2447919606058477e-01 7.0874919739992837e-01 1.2309895197054545e-01  6.2547763563756564e-01 7.1053206271938574e-01 1.2381394419696279e-01  6.2629769332481389e-01 7.1198113630655646e-01 1.2440598568315342e-01  6.2694637345082627e-01 7.1311787519387337e-01 1.2487766470866594e-01  6.2746003311385812e-01 7.1401240173395608e-01 1.2525153674678757e-01  6.2782824077665067e-01 7.1465134288922805e-01 1.2552015522301063e-01  6.2803399170921981e-01 7.1500696707017852e-01 1.2567075540765402e-01  6.1197708209954316e-01 6.8474773748044448e-01 1.1458855614747229e-01  4.9227373764523408e-01 2.5737018785773275e-01 7.6992326457245241e-02  5.8691307785169289e-01 6.2684917636720916e-01 9.9816467920732552e-02  5.0666575579864315e-01 3.3697897127644649e-01 7.3710393400634469e-02  6.2753727827721384e-01 7.1414608546542280e-01 1.2530945558230677e-01  4.8275482907534084e-01 1.7641224637778133e-01 9.2790158258625757e-02  5.5631098213302621e-01 5.3699047245176013e-01 8.5630267550213787e-02  5.2355207151416272e-01 4.1417986364990866e-01 7.5569935107283964e-02  4.8216847163413401e-01 1.6395248169361679e-01 9.7815440286775718e-02  4.8658697992930811e-01 2.1691557902083639e-01 8.2332009486390079e-02  5.8855526502439282e-01 6.3105522523422175e-01 1.0069926767298930e-01  4.8633669818759256e-01 2.1486692464551302e-01 8.2697300432127460e-02  4.8453337178230699e-01 1.9836432296733347e-01 8.6250819418010091e-02  5.7068025181966364e-01 5.8194628213118738e-01 9.1768493317760533e-02  4.9117865832342300e-01 2.5024399627674571e-01 7.7706273200890866e-02  5.9944496663784941e-01 6.5748263091662063e-01 1.0682862098424925e-01  4.8413532105927237e-01 1.9421895110324225e-01 8.7298924196770503e-02  4.8292397950518701e-01 1.7907456422115223e-01 9.1855114991597361e-02  6.1154617650680387e-01 6.8387748947957594e-01 1.1429730782048241e-01  5.5025373291687452e-01 5.1652865378202528e-01 8.3306779465872852e-02  4.9713577307562490e-01 2.8649155732116094e-01 7.4988214886565097e-02  5.3216637942278622e-01 4.4952627540458318e-01 7.7553342193916852e-02  6.1750290168964650e-01 6.9575239660922961e-01 1.1824084542213124e-01  4.8242218146822824e-01 1.7031341268571168e-01 9.5103943519105769e-02  5.0510274482411710e-01 3.2909648501941519e-01 7.3785621512580987e-02  5.2151172978174365e-01 4.0548794422623213e-01 7.5150375270555819e-02  6.2330862095026451e-01 7.0663817492031844e-01 1.2226335138822803e-01  6.2222387630755638e-01 7.0465199646358356e-01 1.2150392384209555e-01  4.9743307106870238e-01 2.8822373577747157e-01 7.4876153449809260e-02  4.8232014411403712e-01 1.6804148019646278e-01 9.6035517816050298e-02  5.4166504566672280e-01 4.8581649630095441e-01 8.0369463331237720e-02  5.7378453334918011e-01 5.9099288483905810e-01 9.3223655711959952e-02  4.8222835504496930e-01 1.6571368365835629e-01 9.7031061941840746e-02  5.1177248971415867e-01 3.6160976204612222e-01 7.3905160697428238e-02  5.1424936075210792e-01 3.7317285235633008e-01 7.4093559333476444e-02  6.2629769410310976e-01 7.1198232984458820e-01 1.2440537882126657e-01  4.8353432098705579e-01 1.8729855734528716e-01 8.9238264103450274e-02  4.8918787691993060e-01 2.3669645373194620e-01 7.9265926134310410e-02  6.2610634795943731e-01 7.1164225441413131e-01 1.2427098013727930e-01  6.0241963382658337e-01 6.6425388503467897e-01 1.0860778792248647e-01  5.0177302994458739e-01 3.1193564687432679e-01 7.4029667800066215e-02  4.8220549995350459e-01 1.6506924174335225e-01 9.7315002426469691e-02  5.3256388398115473e-01 4.5105800683331021e-01 7.7686558941990183e-02  6.0473960515241287e-01 6.6940717180242260e-01 1.1001044398586605e-01  5.4890798128726781e-01 5.1182805324005143e-01 8.2836502575116558e-02  4.8217884841673098e-01 1.6428235709287362e-01 9.7665713515448005e-02  4.8248684662573232e-01 1.7162487939246765e-01 9.4584625758433849e-02  5.1744412888593894e-01 3.8760179241588016e-01 7.4519672054681588e-02  4.8825619033963474e-01 2.2990635918253749e-01 8.0219719201000225e-02  6.1773442428739123e-01 6.9618861282001221e-01 1.1840863123672357e-01  5.8022521082876555e-01 6.0907883339340285e-01 9.6361993337096094e-02  5.6172163921223328e-01 5.5452366706866563e-01 8.7822649154646548e-02  4.8352411125745032e-01 1.8718669456672990e-01 8.9267580270243507e-02  5.4218048757131243e-01 4.8774489442754643e-01 8.0514053405952773e-02  4.9473896437291282e-01 2.7256052286983640e-01 7.5786317121678687e-02  5.6612483521536494e-01 5.6823003882840339e-01 8.9725375892161480e-02  5.7965854742