<?xml version="1.0"?>
<VTKFile type="UnstructuredGrid"  version="0.1"  >
<UnstructuredGrid>
<Piece  NumberOfPoints="4940" NumberOfCells="9650">
<Points>
<DataArray  type="Float64"  NumberOfComponents="3"  format="ascii">500 250 0  0 250 0  250 500 0  250 0 0  256.8885856082646 499.9050767557906 0  263.7719401218049 499.6203791065173 0  270.6448364229772 499.1461232471188 0  277.5020553257866 498.4826693209355 0  284.3383895508592 497.6305211460281 0  291.1486476865662 496.5903258312597 0  297.9276581259182 495.3628732847843 0  304.6702729675493 493.9490956196674 0  311.3713719748657 492.3500664368026 0  318.0258664141369 490.5670000199653 0  324.6287029687753 488.6012504015818 0  331.1748675330201 486.4543103455647 0  337.6593890460416 484.1278102064655 0  344.0773432429536 481.6235166997244 0  350.4238564271474 478.9433315480048 0  356.694109139292 476.0892900492477 0  362.88333985546 473.0635595140469 0  368.9868485575419 469.8684376402048 0  375.0000003153078 466.5063507640667 0  380.9182288257928 462.9798520074548 0  386.7370398729688 459.2916193419558 0  392.4520147244077 455.444453565817 0  398.0588135356345 451.4412761437442 0  403.5531785622926 447.285127045646 0  408.9309374414144 442.9791624087773 0  414.1880064015299 438.5266521049243 0  419.3203932989752 433.9309773069245 0  424.324200661095 429.1956279150535 0  429.1956286596235 424.3241998957182 0  433.9309780058756 419.3203925397119 0  438.5266527445345 414.1880056671062 0  442.9791630130591 408.9309367076756 0  447.2851276060475 403.5531778422888 0  451.4412766621026 398.0588128303826 0  455.4444540361634 392.4520140460735 0  459.2916197786263 386.7370392045948 0  462.9798524073514 380.9182281752347 0  466.5063511234856 374.9999996927758 0  469.8684379657123 368.9868479560565 0  473.0635598144817 362.8833392617846 0  476.0892903190255 356.6941085676214 0  478.9433317963513 350.4238558609745 0  481.6235169154735 344.0773427117675 0  484.12781039012 337.6593885555221 0  486.4543105028062 331.1748670749914 0  488.601250531677 324.6287025528375 0  490.5670001317469 318.0258660188321 0  492.3500665291326 311.3713716102628 0  493.949095695951 304.6702726271575 0  495.3628733416623 297.9276578347343 0  496.5903258712341 291.1486474470129 0  497.6305211749058 284.3383893426084 0  498.4826693388848 277.502055163614 0  499.1461232580606 270.6448362909296 0  499.6203791109319 263.7719400417897 0  499.9050767571306 256.8885855596534 0  499.9050767559877 243.1114143988867 0  499.6203791069493 236.2280598860241 0  499.1461232485393 229.3551635941651 0  498.4826693235677 222.4979446979962 0  497.6305211491849 215.6616104719064 0  496.5903258357701 208.8513523404629 0  495.3628732906988 202.0723419043604 0  493.9490956264813 195.3297270628552 0  492.3500664487791 188.6286280724281 0  490.5670000344809 181.9741336371959 0  488.6012504175981 175.3712970824318 0  486.4543103623226 168.8251325157939 0  484.1278102222298 162.3406109960628 0  481.6235167152198 155.9226567951971 0  478.9433315621651 149.5761436051346 0  476.0892900516498 143.3058908657982 0  473.063559513628 137.1166601437124 0  469.8684376406648 131.0131514433083 0  466.5063507675389 124.9999996907064 0  462.9798520124137 119.0817711822745 0  459.2916193464549 113.2629601339176 0  455.4444535642773 107.5479852733717 0  451.4412761528674 101.9411864767781 0  447.2851270583545 96.44682145403524 0  442.9791624165781 91.06906256805769 0  438.5266521117469 85.81199360630404 0  433.9309773156125 80.67960671046254 0  429.1956279150353 75.67579933888632 0  424.3241998888952 70.80437133373906 0  419.3203925223282 66.06902197812161 0  414.1880056411937 61.47334723289828 0  408.9309366751728 57.0208369601728 0  403.5531778009394 52.71487236176898 0  398.058812796452 48.55872331295853 0  392.4520140187753 44.55554594490843 0  386.7370391799677 40.70838020528396 0  380.9182281475119 37.02014757560744 0  374.9999996718656 33.49364886444181 0  368.9868479340393 30.13156202237255 0  362.8833392380029 26.93644017348339 0  356.6941085456942 23.91070967062674 0  350.4238558420009 21.0566681953261 0  344.0773426899492 18.37648307566465 0  337.6593885328982 15.87218960140942 0  331.1748670549786 13.54568949032341 0  324.6287025315056 11.39874946165088 0  318.0258660010876 9.432999863235466 0  311.3713716017894 7.649933468721599 0  304.6702726190621 6.050904302234756 0  297.9276578269805 4.637126656823085 0  291.148647441857 3.409674127905504 0  284.3383893425031 2.369478825079682 0  277.502055159398 1.517330660648639 0  270.6448362875833 0.853876741662134 0  263.7719400401456 0.3796208889774277 0  256.8885855592052 0.09492324285704967 0  243.1114143979462 0.09492324403817065 0  236.2280598850882 0.3796208931023841 0  229.3551635938215 0.8538767514891958 0  222.4979446968584 1.517330676558146 0  215.6616104703111 2.369478851036291 0  208.8513523382973 3.409674164591252 0  202.0723419066374 4.637126708856528 0  195.3297270659513 6.050904372824903 0  188.628628074828 7.649933550613184 0  181.9741336377093 9.432999965373938 0  175.3712970793675 11.39874958336037 0  168.8251325057572 13.54568964112298 0  162.340610986655 15.87218978129263 0  155.9226567874317 18.37648328793418 0  149.576143602509 21.05666843898663 0  143.3058908718157 23.91070994551046 0  137.1166601505524 26.93644048291054 0  131.0131514451933 30.13156235831508 0  124.9999996848412 33.49364923584736 0  119.0817711715717 37.0201479941652 0  113.2629601211624 40.70838066187849 0  107.5479852622251 44.55554644345162 0  101.9411864693332 48.55872385260452 0  96.44682143286516 52.71487295812284 0  91.06906254351222 57.02083760363669 0  85.81199358272519 61.4733479087879 0  80.67960667988106 66.06902271253972 0  75.67579930062769 70.80437212218331 0  70.80437129287643 75.67580015310926 0  66.06902193673014 80.67960752263491 0  61.47334718684866 85.81199441168215 0  57.02083692524275 91.0690633672404 0  52.71487232786438 96.44682224262129 0  48.55872328070024 101.941187247437 0  44.55554591578033 107.5479860232332 0  40.7083801742321 113.2629608675606 0  37.02014754791168 119.0817718975441 0  33.49364883372994 125.000000381329 0  30.13156199866361 131.0131521097709 0  26.9364401549829 137.1166607985551 0  23.91070965524918 143.3058914868915 0  21.05666818346614 149.576144185037 0  18.37648306853811 155.9226573275967 0  15.8721895918909 162.3406114925245 0  13.54568948170046 168.8251329701392 0  11.39874945301878 175.3712974960928 0  9.432999857087736 181.9741340206533 0  7.649933466342702 188.6286284076045 0  6.050904301250966 195.3297273853278 0  4.637126656808988 202.0723421730917 0  3.409674127767772 208.8513525589684 0  2.369478824521138 215.6616106615248 0  1.517330660909465 222.4979448382452 0  0.8538767414496533 229.355163714981 0  0.3796208887135322 236.2280599646376 0  0.09492324266324204 243.1114144478261 0  0.0949232442452228 256.8885856095658 0  0.3796208935834784 263.7719401236316 0  0.8538767530323526 270.6448364248016 0  1.517330679476544 277.5020553295092 0  2.369478854618649 284.3383895555228 0  3.409674170191892 291.1486476952655 0  4.6371267162381 297.9276581311522 0  6.050904381420935 304.6702729724059 0  7.649933562385399 311.3713719716595 0  9.43299997979841 318.0258664133013 0  11.3987495994252 324.6287029719946 0  13.54568965885832 331.174867545904 0  15.87218979367188 337.6593890464085 0  18.37648329843151 344.0773432384132 0  21.05666844777872 350.423856417535 0  23.91070995156048 356.6941091410045 0  26.93644048988043 362.8833398632205 0  30.13156235982007 368.9868485575877 0  33.49364924138357 375.0000003247478 0  37.0201480006036 380.9182288389023 0  40.70838066758398 386.7370398875706 0  44.55554644477201 392.4520147396792 0  48.55872386086904 398.0588135419111 0  52.71487295981296 403.5531785693063 0  57.02083760525949 408.9309374584583 0  61.47334790862246 414.1880064170849 0  66.06902271205095 419.320393319588 0  70.80437211216579 424.3242006890749 0  75.67580013809859 429.195628692521 0  80.6796075127923 433.930978054209 0  85.81199439754931 438.5266528008431 0  91.06906334717917 442.9791630582355 0  96.44682221438322 447.2851276501571 0  101.9411872243843 451.441276702356 0  107.5479859945825 455.4444540643537 0  113.2629608446994 459.2916198108319 0  119.0817718768376 462.9798524393601 0  125.0000003647644 466.5063511567065 0  131.0131521012763 469.8684379967393 0  137.1166607840049 473.0635598376539 0  143.3058914748804 476.0892903390826 0  149.5761441732679 478.9433318113714 0  155.9226573130112 481.6235169255377 0  162.3406114779862 484.1278104026658 0  168.8251329570439 486.4543105138039 0  175.3712974805475 488.601250542119 0  181.9741340135204 490.5670001408953 0  188.6286284005059 492.3500665318597 0  195.3297273788229 493.9490956972913 0  202.0723421640089 495.3628733414168 0  208.8513525529672 496.5903258712308 0  215.6616106544547 497.6305211744985 0  222.4979448327038 498.4826693384772 0  229.3551637102845 499.1461232581612 0  236.2280599621369 499.6203791111485 0  243.1114144470173 499.9050767573145 0  155.2373389820306 474.8197567317462 0  25.36256300907667 153.9152755065208 0  432.3709625126712 412.6214396304305 0  6.013151705810699 246.637913163471 0  246.6379131630491 493.986848294322 0  338.6995838441862 22.68244767887072 0  477.3175523131281 338.6995838660569 0  493.9868482700757 246.6379131399102 0  246.6201155078769 6.218451882810491 0  417.6179310263282 72.7156044707053 0  102.2232990934413 445.0100869616822 0  63.66330858966404 92.20354579482142 0  391.3105220491464 50.73522820883105 0  72.79295043967942 418.0702734974704 0  448.290574428537 108.25674339002 0  402.4604651193511 440.7462829841712 0  97.55317348421397 59.11376320116034 0  136.7376477664901 33.58246472647134 0  363.3288394375288 465.6947312928271 0  44.0678766556007 381.0860953771871 0  469.6905266180034 142.3890690100806 0  22.68244791668644 338.6995843487432 0  338.699584349159 477.317552078365 0  173.389488083762 18.6681884918202 0  483.4809734778481 179.7121987795732 0  13.50237455842738 306.4709525540879 0  305.9825168523021 487.24416992
[...]
<PointData  Vectors="f_12"> 
<DataArray  type="Float64"  Name="f_12"  NumberOfComponents="3" format="ascii">7.9111417835946918e-01 7.1775502476566322e-01 4.4837525500826980e-01  7.7775197773995031e-01 7.5564432051437946e-01 3.7439474734332834e-01  7.7772709625129521e-01 4.5518692636228075e-01 7.9013461652654005e-01  7.0025394063493851e-01 7.9198444712235905e-01 1.9730484252308539e-01  7.7774227359574344e-01 4.5525414940204473e-01 7.9007620052553329e-01  7.7784582463908636e-01 4.5571975674118659e-01 7.8966864555298333e-01  7.7800823237744088e-01 4.5645167824580823e-01 7.8902687362958857e-01  7.7824867781314366e-01 4.5754045094049006e-01 7.8806869657119194e-01  7.7855288084902508e-01 4.5892547257529842e-01 7.8684357657518489e-01  7.7891858256380608e-01 4.6060191670980982e-01 7.8535180086894285e-01  7.7934176350098250e-01 4.6255825213750945e-01 7.8359825247034842e-01  7.7981571710216591e-01 4.6477035199488759e-01 7.8159952145407663e-01  7.8033797528522009e-01 4.6723422924219737e-01 7.7935349365365025e-01  7.8090646617615678e-01 4.6994977336780908e-01 7.7685346320359583e-01  7.8152910120726093e-01 4.7296479930427987e-01 7.7404815338315658e-01  7.8215628002365267e-01 4.7604536166332695e-01 7.7115106297516778e-01  7.8285301918932659e-01 4.7952650170921818e-01 7.6783720227949803e-01  7.8355250250206698e-01 4.8308441946940356e-01 7.6440830214421440e-01  7.8427927711135326e-01 4.8685079461354774e-01 7.6073318546390400e-01  7.8502251664272893e-01 4.9078112624782039e-01 7.5684797391605119e-01  7.8577604015656066e-01 4.9485466091588298e-01 7.5276765320709715e-01  7.8655135920678121e-01 4.9914867376709543e-01 7.4840716039607391e-01  7.8733342213362201e-01 5.0358798887594347e-01 7.4383824699784762e-01  7.8810762522674160e-01 5.0810339841459007e-01 7.3912537815084289e-01  7.8888401082345083e-01 5.1276215843123851e-01 7.3419520534370331e-01  7.8966419214619299e-01 5.1759283509490162e-01 7.2900994865907276e-01  7.9044464926463354e-01 5.2258600493891649e-01 7.2357392166834855e-01  7.9120303463293429e-01 5.2761517919921175e-01 7.1802001805267535e-01  7.9194897213780202e-01 5.3275575085259452e-01 7.1226185628219141e-01  7.9268914065068230e-01 5.3806977041525017e-01 7.0622376907265005e-01  7.9340227523990081e-01 5.4342535875723852e-01 7.0005120697198020e-01  7.9409619737774728e-01 5.4889944066354535e-01 6.9365023587045360e-01  7.9476522858597110e-01 5.5446037283075533e-01 6.8705602800337895e-01  7.9540306280196127e-01 5.6007692584419755e-01 6.8030003638225522e-01  7.9601583425302513e-01 5.6583314009757135e-01 6.7327601848346941e-01  7.9659105210346459e-01 5.7163453194371849e-01 6.6609682101439205e-01  7.9712479850245554e-01 5.7745983685261271e-01 6.5878516300816159e-01  7.9762167727613009e-01 5.8339313938711934e-01 6.5123202180218631e-01  7.9807644035638747e-01 5.8941765197434071e-01 6.4345354754525308e-01  7.9848006908442892e-01 5.9544268411951462e-01 6.3556422447681438e-01  7.9883071006622630e-01 6.0147166960516696e-01 6.2755827730860814e-01  7.9912980014456780e-01 6.0757272592712774e-01 6.1934286007277395e-01  7.9937271152784162e-01 6.1371800663781861e-01 6.1095149690935746e-01  7.9955284287778183e-01 6.1984749948385387e-01 6.0246322409969111e-01  7.9966961093374800e-01 6.2599765062325785e-01 5.9382592721978122e-01  7.9972057338164693e-01 6.3214342282763580e-01 5.8507406840640241e-01  7.9970198481083876e-01 6.3826857873379717e-01 5.7622800972079846e-01  7.9961149850568847e-01 6.4435517209679916e-01 5.6731394948202107e-01  7.9944534211634755e-01 6.5046083412895106e-01 5.5824338643848415e-01  7.9920461705988066e-01 6.5649733395435139e-01 5.4914952118724036e-01  7.9888364159674474e-01 6.6248809139831177e-01 5.3999308133328283e-01  7.9848446564309061e-01 6.6841224948900269e-01 5.3080872458267259e-01  7.9800287328732944e-01 6.7427388930981524e-01 5.2158841729461569e-01  7.9743740178973876e-01 6.8007129310811143e-01 5.1233401298172365e-01  7.9678895468237032e-01 6.8577383612481446e-01 5.0309440980935061e-01  7.9605687899462751e-01 6.9137030186105441e-01 4.9388768860010052e-01  7.9523870761898752e-01 6.9688544096513849e-01 4.8467496946094618e-01  7.9433678371801741e-01 7.0229028928157966e-01 4.7550442245945168e-01  7.9335470635537586e-01 7.0757228069413391e-01 4.6639939933718089e-01  7.9229904686989083e-01 7.1269065060643311e-01 4.5743675494302583e-01  7.8989411981136692e-01 7.2265671166917134e-01 4.3949856512127466e-01  7.8858192708319652e-01 7.2740740020135686e-01 4.3072153285288300e-01  7.8719153172617295e-01 7.3199908302380012e-01 4.2207321952882415e-01  7.8572238977786746e-01 7.3646946148156445e-01 4.1349349554728065e-01  7.8418161682415377e-01 7.4076290274848622e-01 4.0507812259784132e-01  7.8257123214722257e-01 7.4491172091874081e-01 3.9677838413191913e-01  7.8089014648753896e-01 7.4889336766050085e-01 3.8862718759302251e-01  7.7914425636108031e-01 7.5271432959818507e-01 3.8062102269234616e-01  7.7733769801558661e-01 7.5636948754539124e-01 3.7277134481931262e-01  7.7547367411890311e-01 7.5985322781567488e-01 3.6508996475554811e-01  7.7355199121428153e-01 7.6317691866628412e-01 3.5755732439928467e-01  7.7158726050904025e-01 7.6631620040490545e-01 3.5022772272267133e-01  7.6956905768588002e-01 7.6930068325550782e-01 3.4304118500492115e-01  7.6751129722614364e-01 7.7211082572011169e-01 3.3604299449996411e-01  7.6541603996609220e-01 7.7475335761070285e-01 3.2922386681294352e-01  7.6328877851022381e-01 7.7722500960253604e-01 3.2259424144606774e-01  7.6113329142650665e-01 7.7953199178846089e-01 3.1614750804162167e-01  7.5895256522067378e-01 7.8167512694963703e-01 3.0988458976633942e-01  7.5675096873011771e-01 7.8365851399631692e-01 3.0380312942251758e-01  7.5453596822757341e-01 7.8548394289719603e-01 2.9790871832364424e-01  7.5230829488289208e-01 7.8715765625145795e-01 2.9219149241368542e-01  7.5008115930924368e-01 7.8867047077650110e-01 2.8668195356457149e-01  7.4784764009783622e-01 7.9004143064192600e-01 2.8134066695376947e-01  7.4562634821093776e-01 7.9126538275551839e-01 2.7620108646385000e-01  7.4341131957408224e-01 7.9235265120065401e-01 2.7123780423957139e-01  7.4120970278344633e-01 7.9330689920288255e-01 2.6645528444151695e-01  7.3902636771561792e-01 7.9413295871713618e-01 2.6185330390875655e-01  7.3686647280254114e-01 7.9483610752362610e-01 2.5743165316592648e-01  7.3473603926319331e-01 7.9542405343033695e-01 2.5318816863607935e-01  7.3263594851927571e-01 7.9590164037601652e-01 2.4911770652420559e-01  7.3057341983440827e-01 7.9627569501190043e-01 2.4522224171925303e-01  7.2855176098221819e-01 7.9655344309249188e-01 2.4149742743452801e-01  7.2657075670821691e-01 7.9674090754778570e-01 2.3793512749053328e-01  7.2464131010554700e-01 7.9684603501583029e-01 2.3454361078859498e-01  7.2277525377862728e-01 7.9687539558321641e-01 2.3133508367561306e-01  7.2095402551420873e-01 7.9683684285828205e-01 2.2826831388243338e-01  7.1918872806267065e-01 7.9673766092810516e-01 2.2535444716668104e-01  7.1750215319482702e-01 7.9658548488052172e-01 2.2262413990114119e-01  7.1586921889777366e-01 7.9638622106469714e-01 2.2002735256825567e-01  7.1429298557442655e-01 7.9614696981117095e-01 2.1756275006511250e-01  7.1281157472753742e-01 7.9587871706710978e-01 2.1528423544059047e-01  7.1140010259568587e-01 7.9558393878340816e-01 2.1314786789063034e-01  7.1006605507362708e-01 7.9527227099309949e-01 2.1115590154443103e-01  7.0880571185685903e-01 7.9494777561040053e-01 2.0929913904413763e-01  7.0762815305677618e-01 7.9461823602236958e-01 2.0758584805357308e-01  7.0653203526310659e-01 7.9428875357803674e-01 2.0600941755351346e-01  7.0552172361575705e-01 7.9396578645712823e-01 2.0457170395240090e-01  7.0459988156625630e-01 7.9365502482848205e-01 2.0327249727506269e-01  7.0375953852028705e-01 7.9335836954500449e-01 2.0209856844149754e-01  7.0300198429426941e-01 7.9308026861389080e-01 2.0104825616331193e-01  7.0233584120893089e-01 7.9282744478507183e-01 2.0013098526600562e-01  7.0176448337923114e-01 7.9260391889194193e-01 1.9934938857530757e-01  7.0128705487495990e-01 7.9241247221769551e-01 1.9869999936600172e-01  7.0089153354870937e-01 7.9225081741791170e-01 1.9816430824381140e-01  7.0058972174835643e-01 7.9212561294520811e-01 1.9775680077600150e-01  7.0037429812240426e-01 7.9203538021760500e-01 1.9746652427942782e-01  7.0024548345782101e-01 7.9198052663747276e-01 1.9729394798291899e-01  7.0022695280532288e-01 7.9197342021592965e-01 1.9726805391731400e-01  7.0040621529193936e-01 7.9204836916389854e-01 1.9751012335383542e-01  7.0062972093267739e-01 7.9214193786036358e-01 1.9781127905074450e-01  7.0093301680604858e-01 7.9226739050449890e-01 1.9822107210836423e-01  7.0132680611179055e-01 7.9242776969475004e-01 1.9875515280227349e-01  7.0180556569895980e-01 7.9261909976379574e-01 1.9940707165435970e-01  7.0235777912555386e-01 7.9283474533967524e-01 2.0016274621289673e-01  7.0299053371851827e-01 7.9307517964696794e-01 2.0103357456071694e-01  7.0366206946813914e-01 7.9332322268437117e-01 2.0196286092931037e-01  7.0446406611612955e-01 7.9360796225170271e-01 2.0308204428825830e-01  7.0532188520039207e-01 7.9389937156372559e-01 2.0428933703497448e-01  7.0624585114326199e-01 7.9419885148928882e-01 2.0560099592933320e-01  7.0722024707482922e-01 7.9449868599797668e-01 2.0699626528399934e-01  7.0826750780456693e-01 7.9480109296583457e-01 2.0851215302866383e-01  7.0939097179319044e-01 7.9510314089855882e-01 2.1015661748019229e-01  7.1056403558190750e-01 7.9539387987136523e-01 2.1189397358155854e-01  7.1179051336068988e-01 7.9567115013203948e-01 2.1373242826265262e-01  7.1306813348874043e-01 7.9593032167882427e-01 2.1567269079115842e-01  7.1439671741788513e-01 7.9616728011571891e-01 2.1771862938025519e-01  7.1578101317430265e-01 7.9637830184508984e-01 2.1988191135746052e-01  7.1721195453011521e-01 7.9655880179420469e-01 2.2215140126122329e-01  7.1867958601363957e-01 7.9670325054572744e-01 2.2451583529809926e-01  7.2018453424396067e-01 7.9680802279494756e-01 2.2698038064134793e-01  7.2172776264852256e-01 7.9686956829618993e-01 2.2955058410815071e-01  7.2330591987152226e-01 7.9688363890496949e-01 2.3222567042353742e-01  7.2491700666464043e-01 7.9684652173354453e-01 2.3500657167787126e-01  7.2655730277000774e-01 7.9675431890767079e-01 2.3789184259323054e-01  7.2822566197443284e-01 7.9660348350350874e-01 2.4088394761999046e-01  7.2991830392680568e-01 7.9639059645953014e-01 2.4398108548207767e-01  7.3163318723090709e-01 7.9611232039528335e-01 2.4718432582221603e-01  7.3336467933895355e-01 7.9576628822454609e-01 2.5048773987148643e-01  7.3511203277753656e-01 7.9534938140411260e-01 2.5389468212804722e-01  7.3687838663105820e-01 7.9485632220190483e-01 2.5741808303463798e-01  7.3866137885955085e-01 7.9428515689181667e-01 2.6105677371081387e-01  7.4045602208899974e-01 7.9363284787897193e-01 2.6480769290227951e-01  7.4225891502596419e-01 7.9289734334307960e-01 2.6866900960145024e-01  7.4406767722019784e-01 7.9207692500800997e-01 2.7263991951832550e-01  7.4588171611106424e-01 7.9116770332357234e-01 2.7672601246100664e-01  7.4769721637650821e-01 7.9016731920047978e-01 2.8092588911146654e-01  7.4952880850576931e-01 7.8906323553044622e-01 2.8527993394744910e-01  7.5135579179397205e-01 7.8786522810227166e-01 2.8974439320251549e-01  7.5317390575878373e-01 7.8657026786562212e-01 2.9431800067076752e-01  7.5499734459385559e-01 7.8516724242672664e-01 2.9903887146197644e-01  7.5681959498379314e-01 7.8365276161670727e-01 3.0390373252965297e-01  7.5863854258899843e-01 7.8202464818733919e-01 3.0891347514125822e-01  7.6043822873583877e-01 7.8029508860241514e-01 3.1402852907707612e-01  7.6224442936419490e-01 7.7842815131115417e-01 3.1933988356913778e-01  7.6403519062595282e-01 7.7644388014911914e-01 3.2478749738803225e-01  7.6581324091607494e-01 7.7433862451626045e-01 3.3038210493760023e-01  7.6757283757242190e-01 7.7210002489964080e-01 3.3613554636028192e-01  7.6932454336631628e-01 7.6972176339511411e-01 3.4207234002849968e-01  7.7105808624333094e-01 7.6720146840807413e-01 3.4818331527941720e-01  7.7276909271691185e-01 7.6453821699011237e-01 3.5446523711138872e-01  7.7445633479799947e-01 7.6172781249913357e-01 3.6092346450654877e-01  7.7611679537082834e-01 7.5876866779425844e-01 3.6755735754833552e-01  7.7935809547824686e-01 7.5235476885369790e-01 3.8143099394675506e-01  7.8092686419509272e-01 7.4890529043314302e-01 3.8864844078236704e-01  7.8245869252631617e-01 7.4528021835327607e-01 3.9607198897610368e-01  7.8395026351754626e-01 7.4148276900762611e-01 4.0369225661082808e-01  7.8539763371213744e-01 7.3750564689195386e-01 4.1151587550255031e-01  7.8679822949478539e-01 7.3334201399712851e-01 4.1954988947176464e-01  7.8814711478552590e-01 7.2899125365314488e-01 4.2778889205551063e-01  7.8944146194246778e-01 7.2444940856013118e-01 4.3623462095387211e-01  7.9067702789399863e-01 7.1971374423797474e-01 4.4488529229688717e-01  7.9184954636068861e-01 7.1478091576605096e-01 4.5373975705663311e-01  7.9295400447199893e-01 7.0965082761652831e-01 4.6279098682499498e-01  7.9398830921237895e-01 7.0432945107703682e-01 4.7202469017019916e-01  7.9494631187459552e-01 6.9881807468083212e-01 4.8143017119092896e-01  7.9582750855536655e-01 6.9310057750754550e-01 4.9102864777180150e-01  7.9662484811527734e-01 6.8721171830132177e-01 5.0075659873533507e-01  7.9733800098505636e-01 6.8110946522209359e-01 5.1067350294804659e-01  7.9796363699835582e-01 6.7481146167727335e-01 5.2074561399698593e-01  7.9849640438346525e-01 6.6836477424120766e-01 5.3089131665759648e-01  7.9893449255645221e-01 6.6173513311075383e-01 5.4115801671381747e-01  7.9927874590486925e-01 6.5494921554697949e-01 5.5149964474043034e-01  7.9952481001549303e-01 6.4799783152328549e-01 5.6192200892537436e-01  7.9967246848577223e-01 6.4090977899812018e-01 5.7237733431558546e-01  7.9972208076036566e-01 6.3368675191759471e-01 5.8285784425288134e-01  7.9967272922971133e-01 6.2634368511719352e-01 5.9333677309109478e-01  7.9952608931483282e-01 6.1891123761226297e-01 6.0376606916984610e-01  7.9928354038962313e-01 6.1140487880117422e-01 6.1412114706155618e-01  7.9894727573122237e-01 6.0380954673454268e-01 6.2442191436485173e-01  7.9852190495089215e-01 5.9620893188684843e-01 6.3454996619947435e-01  7.9800766318700800e-01 5.8856018578820590e-01 6.4456385492580348e-01  7.9741272074747793e-01 5.8092192443424340e-01 6.5438649409519378e-01  7.9674192735650262e-01 5.7331592583246405e-01 6.6399273888512078e-01  7.9600024778011713e-01 5.6576062773328184e-01 6.7336110533158844e-01  7.9519540766764729e-01 5.5828421490534041e-01 6.8246207743777720e-01  7.9433256804816688e-01 5.5089798890054675e-01 6.9128645192782945e-01  7.9341740260931526e-01 5.4361096544112331e-01 6.9983003253085974e-01  7.9246786318958573e-01 5.3651945099002840e-01 7.0798889093801087e-01  7.9148947358761990e-01 5.2962316633774453e-01 7.1577505074288483e-01  7.9047770101314219e-01 5.2285450809871126e-01 7.2327397263000359e-01  7.8945757201864797e-01 5.1634462666070458e-01 7.3035178411275348e-01  7.8843698938288798e-01 5.1010758426972413e-01 7.3700760682889987e-01  7.8741759556071045e-01 5.0411387255468931e-01 7.4328783524060094e-01  7.8641387543357055e-01 4.9841598907733714e-01 7.4915097965490829e-01  7.8542858032204177e-01 4.9300011806308441e-01 7.5462750953140534e-01  7.8448409681207187e-01 4.8795537900426267e-01 7.5964168305643964e-01  7.8357205393785123e-01 4.8321078735938405e-01 7.6428196313727503e-01  7.8270986928783193e-01 4.7883101386825166e-01 7.6849853429530968e-01  7.8189882825420964e-01 4.7479677503456408e-01 7.7232489979607544e-01  7.8114186558345156e-01 4.7110074203950125e-01 7.7578271853512026e-01  7.8046137336555677e-01 4.6783442704821426e-01 7.7880059443645822e-01  7.7985231616954986e-01 4.6495459464524452e-01 7.8142965219060589e-01  7.7930505036824071e-01 4.6239804777909421e-01 7.8374017410582575e-01  7.7884151897806608e-01 4.6025612731813131e-01 7.8565827418386081e-01  7.7846283206303524e-01 4.5852163052813727e-01 7.8720006538602139e-01  7.7815971102115811e-01 4.5714278138522751e-01 7.8841771774418101e-01  7.7793701826517825e-01 4.5613428742520662e-01 7.8930464736613815e-01  7.7779947222355339e-01 4.5551373454497246e-01 7.8984841142982853e-01  7.8600443470059800e-01 4.9614892396294713e-01 7.5145441408460734e-01  7.5202934370001862e-01 7.8739433680650317e-01 2.9142830967961214e-01  7.9580385142530374e-01 5.6379311159153334e-01 6.7577938595150133e-01  7.7696644264499348e-01 7.5716684640329823e-01 3.7107951699374625e-01  7.7791695244996795e-01 4.5604487584322767e-01 7.8938295431030481e-01  7.0958517235071972e-01 7.9514949732487450e-01 2.1044806614543146e-01  7.9965966683987055e-01 6.4163870228427888e-01 5.7130697508932149e-01  7.9049855884333864e-01 7.2032430772447542e-01 4.4375588201059812e-01  7.0042019709154835e-01 7.9205200285115529e-01 1.9753220583073045e-01  7.3373398952658331e-01 7.9566132208484375e-01 2.5123682767129274e-01  7.9483629993120763e-01 5.5515165986599635e-01 6.8622293194487050e-01  7.3260912201410167e-01 7.9592242702577154e-01 2.4904196285537908e-01  7.2359316947379937e-01 7.9686875752295572e-01 2.3273649103379271e-01  7.9874302531852170e-01 5.9998754758489259e-01 6.2953617104974013e-01  7.4896578731054286e-01 7.8937042595585827e-01 2.8399640050213326e-01  7.9162872769184556e-01 5.3052360005429844e-01 7.1477398443621032e-01  7.2100616521901861e-01 7.9684425120319868e-01 2.2834682708282319e-01  7.1131626271785209e-01 7.9556489130744168e-01 2.1302226374177688e-01  7.8632178177130074e-01 4.9786561260145767e-01 7.4971862435694703e-01  7.9942359159355114e-01 6.5113796850850902e-01 5.5723146679289082e-01  7.6216528168567599e-01 7.7844789986174012e-01 3.1920677919599905e-01  7.9539158331570947e-01 6.9602233160306115e-01 4.8614527459704870e-01  7.8332213550287677e-01 4.8190844627466839e-01 7.6554607680158937e-01  7.0515727655074456e-01 7.9384265382502761e-01 2.0406002127762574e-01  7.7429793320572637e-01 7.6191333079727552e-01 3.6044366987543852e-01  7.9007495058388055e-01 7.2206291470808737e-01 4.4060991159743679e-01  7.8018376969834369e-01 4.6650726012420907e-01 7.8001756511306930e-01  7.8092438134955577e-01 4.7005269054222781e-01 7.7675597836449695e-01  7.6319167280374189e-01 7.7739026063834216e-01 3.2220618758666253e-01  7.0355044289870305e-01 7.9328038428540515e-01 2.0181116708715602e-01  7.9770785553177792e-01 6.7740276073437111e-01 5.1660998748070752e-01  7.9862054701441498e-01 5.9776385256220244e-01 6.3249460832085791e-01  7.0176902063891744e-01 7.9260273012081228e-01 1.9936000464855641e-01  7.8160068241646030e-01 7.4724348822410414e-01 3.9202455537631586e-01  7.8469175986481554e-01 7.3947693425739125e-01 4.0765449805955051e-01  7.7854905940835673e-01 4.5891096501968093e-01 7.8685586556252018e-01  7.1684200146737975e-01 7.9650795429867183e-01 2.2157283320099727e-01  7.4324699684266216e-01 7.9245657638723088e-01 2.7083046451449111e-01  7.7878759081923676e-01 4.6001045635112114e-01 7.8587718106547433e-01  7.9006938833267581e-01 5.2020986802092650e-01 7.2616905809069121e-01  7.7042006151418230e-01 7.6814492806693224e-01 3.4591250168218307e-01  7.0129683108595797e-01 7.9241399607622454e-01 1.9871688325802214e-01  7.9486820063383690e-01 6.9916263008269142e-01 4.8082549747992470e-01  7.8941352324035774e-01 5.1602652479968558e-01 7.3069984969089152e-01  7.9903845157035913e-01 6.5976958997936319e-01 5.4416378511591734e-01  7.0068831414981836e-01 7.9216424616776293e-01 1.9789328193798505e-01  7.0619230610496642e-01 7.9418007399584090e-01 2.0552747071859895e-01  7.8642386429112654e-01 7.3438397353204543e-01 4.1751890571441413e-01  7.4008110927551496e-01 7.9374489936214077e-01 2.6406474684750580e-01  7.8323754616977448e-01 4.8150444198509063e-01 7.6593068454191582e-01  7.9743274613097126e-01 5.8106537117922963e-01 6.5421046248777848e-01  7.9960646189731099e-01 6.2241780814325998e-01 5.9886796031075895e-01  7.1663791068000060e-01 7.9648823711771433e-01 2.2124069087359816e-01  7.9827074774030693e-01 6.7125024643008169e-01 5.2637103752186154e-01  7.5779042300574950e-01 7.8279300730146018e-01 3.0656620327948791e-01  7.9947998204674431e-01 6.1714606105544367e-01 6.0621762944336710e-01  7.9711348312