<?xml version="1.0"?>
<VTKFile type="UnstructuredGrid"  version="0.1"  >
<UnstructuredGrid>
<Piece  NumberOfPoints="4940" NumberOfCells="9650">
<Points>
<DataArray  type="Float64"  NumberOfComponents="3"  format="ascii">500 250 0  0 250 0  250 500 0  250 0 0  256.8885856082646 499.9050767557906 0  263.7719401218049 499.6203791065173 0  270.6448364229772 499.1461232471188 0  277.5020553257866 498.4826693209355 0  284.3383895508592 497.6305211460281 0  291.1486476865662 496.5903258312597 0  297.9276581259182 495.3628732847843 0  304.6702729675493 493.9490956196674 0  311.3713719748657 492.3500664368026 0  318.0258664141369 490.5670000199653 0  324.6287029687753 488.6012504015818 0  331.1748675330201 486.4543103455647 0  337.6593890460416 484.1278102064655 0  344.0773432429536 481.6235166997244 0  350.4238564271474 478.9433315480048 0  356.694109139292 476.0892900492477 0  362.88333985546 473.0635595140469 0  368.9868485575419 469.8684376402048 0  375.0000003153078 466.5063507640667 0  380.9182288257928 462.9798520074548 0  386.7370398729688 459.2916193419558 0  392.4520147244077 455.444453565817 0  398.0588135356345 451.4412761437442 0  403.5531785622926 447.285127045646 0  408.9309374414144 442.9791624087773 0  414.1880064015299 438.5266521049243 0  419.3203932989752 433.9309773069245 0  424.324200661095 429.1956279150535 0  429.1956286596235 424.3241998957182 0  433.9309780058756 419.3203925397119 0  438.5266527445345 414.1880056671062 0  442.9791630130591 408.9309367076756 0  447.2851276060475 403.5531778422888 0  451.4412766621026 398.0588128303826 0  455.4444540361634 392.4520140460735 0  459.2916197786263 386.7370392045948 0  462.9798524073514 380.9182281752347 0  466.5063511234856 374.9999996927758 0  469.8684379657123 368.9868479560565 0  473.0635598144817 362.8833392617846 0  476.0892903190255 356.6941085676214 0  478.9433317963513 350.4238558609745 0  481.6235169154735 344.0773427117675 0  484.12781039012 337.6593885555221 0  486.4543105028062 331.1748670749914 0  488.601250531677 324.6287025528375 0  490.5670001317469 318.0258660188321 0  492.3500665291326 311.3713716102628 0  493.949095695951 304.6702726271575 0  495.3628733416623 297.9276578347343 0  496.5903258712341 291.1486474470129 0  497.6305211749058 284.3383893426084 0  498.4826693388848 277.502055163614 0  499.1461232580606 270.6448362909296 0  499.6203791109319 263.7719400417897 0  499.9050767571306 256.8885855596534 0  499.9050767559877 243.1114143988867 0  499.6203791069493 236.2280598860241 0  499.1461232485393 229.3551635941651 0  498.4826693235677 222.4979446979962 0  497.6305211491849 215.6616104719064 0  496.5903258357701 208.8513523404629 0  495.3628732906988 202.0723419043604 0  493.9490956264813 195.3297270628552 0  492.3500664487791 188.6286280724281 0  490.5670000344809 181.9741336371959 0  488.6012504175981 175.3712970824318 0  486.4543103623226 168.8251325157939 0  484.1278102222298 162.3406109960628 0  481.6235167152198 155.9226567951971 0  478.9433315621651 149.5761436051346 0  476.0892900516498 143.3058908657982 0  473.063559513628 137.1166601437124 0  469.8684376406648 131.0131514433083 0  466.5063507675389 124.9999996907064 0  462.9798520124137 119.0817711822745 0  459.2916193464549 113.2629601339176 0  455.4444535642773 107.5479852733717 0  451.4412761528674 101.9411864767781 0  447.2851270583545 96.44682145403524 0  442.9791624165781 91.06906256805769 0  438.5266521117469 85.81199360630404 0  433.9309773156125 80.67960671046254 0  429.1956279150353 75.67579933888632 0  424.3241998888952 70.80437133373906 0  419.3203925223282 66.06902197812161 0  414.1880056411937 61.47334723289828 0  408.9309366751728 57.0208369601728 0  403.5531778009394 52.71487236176898 0  398.058812796452 48.55872331295853 0  392.4520140187753 44.55554594490843 0  386.7370391799677 40.70838020528396 0  380.9182281475119 37.02014757560744 0  374.9999996718656 33.49364886444181 0  368.9868479340393 30.13156202237255 0  362.8833392380029 26.93644017348339 0  356.6941085456942 23.91070967062674 0  350.4238558420009 21.0566681953261 0  344.0773426899492 18.37648307566465 0  337.6593885328982 15.87218960140942 0  331.1748670549786 13.54568949032341 0  324.6287025315056 11.39874946165088 0  318.0258660010876 9.432999863235466 0  311.3713716017894 7.649933468721599 0  304.6702726190621 6.050904302234756 0  297.9276578269805 4.637126656823085 0  291.148647441857 3.409674127905504 0  284.3383893425031 2.369478825079682 0  277.502055159398 1.517330660648639 0  270.6448362875833 0.853876741662134 0  263.7719400401456 0.3796208889774277 0  256.8885855592052 0.09492324285704967 0  243.1114143979462 0.09492324403817065 0  236.2280598850882 0.3796208931023841 0  229.3551635938215 0.8538767514891958 0  222.4979446968584 1.517330676558146 0  215.6616104703111 2.369478851036291 0  208.8513523382973 3.409674164591252 0  202.0723419066374 4.637126708856528 0  195.3297270659513 6.050904372824903 0  188.628628074828 7.649933550613184 0  181.9741336377093 9.432999965373938 0  175.3712970793675 11.39874958336037 0  168.8251325057572 13.54568964112298 0  162.340610986655 15.87218978129263 0  155.9226567874317 18.37648328793418 0  149.576143602509 21.05666843898663 0  143.3058908718157 23.91070994551046 0  137.1166601505524 26.93644048291054 0  131.0131514451933 30.13156235831508 0  124.9999996848412 33.49364923584736 0  119.0817711715717 37.0201479941652 0  113.2629601211624 40.70838066187849 0  107.5479852622251 44.55554644345162 0  101.9411864693332 48.55872385260452 0  96.44682143286516 52.71487295812284 0  91.06906254351222 57.02083760363669 0  85.81199358272519 61.4733479087879 0  80.67960667988106 66.06902271253972 0  75.67579930062769 70.80437212218331 0  70.80437129287643 75.67580015310926 0  66.06902193673014 80.67960752263491 0  61.47334718684866 85.81199441168215 0  57.02083692524275 91.0690633672404 0  52.71487232786438 96.44682224262129 0  48.55872328070024 101.941187247437 0  44.55554591578033 107.5479860232332 0  40.7083801742321 113.2629608675606 0  37.02014754791168 119.0817718975441 0  33.49364883372994 125.000000381329 0  30.13156199866361 131.0131521097709 0  26.9364401549829 137.1166607985551 0  23.91070965524918 143.3058914868915 0  21.05666818346614 149.576144185037 0  18.37648306853811 155.9226573275967 0  15.8721895918909 162.3406114925245 0  13.54568948170046 168.8251329701392 0  11.39874945301878 175.3712974960928 0  9.432999857087736 181.9741340206533 0  7.649933466342702 188.6286284076045 0  6.050904301250966 195.3297273853278 0  4.637126656808988 202.0723421730917 0  3.409674127767772 208.8513525589684 0  2.369478824521138 215.6616106615248 0  1.517330660909465 222.4979448382452 0  0.8538767414496533 229.355163714981 0  0.3796208887135322 236.2280599646376 0  0.09492324266324204 243.1114144478261 0  0.0949232442452228 256.8885856095658 0  0.3796208935834784 263.7719401236316 0  0.8538767530323526 270.6448364248016 0  1.517330679476544 277.5020553295092 0  2.369478854618649 284.3383895555228 0  3.409674170191892 291.1486476952655 0  4.6371267162381 297.9276581311522 0  6.050904381420935 304.6702729724059 0  7.649933562385399 311.3713719716595 0  9.43299997979841 318.0258664133013 0  11.3987495994252 324.6287029719946 0  13.54568965885832 331.174867545904 0  15.87218979367188 337.6593890464085 0  18.37648329843151 344.0773432384132 0  21.05666844777872 350.423856417535 0  23.91070995156048 356.6941091410045 0  26.93644048988043 362.8833398632205 0  30.13156235982007 368.9868485575877 0  33.49364924138357 375.0000003247478 0  37.0201480006036 380.9182288389023 0  40.70838066758398 386.7370398875706 0  44.55554644477201 392.4520147396792 0  48.55872386086904 398.0588135419111 0  52.71487295981296 403.5531785693063 0  57.02083760525949 408.9309374584583 0  61.47334790862246 414.1880064170849 0  66.06902271205095 419.320393319588 0  70.80437211216579 424.3242006890749 0  75.67580013809859 429.195628692521 0  80.6796075127923 433.930978054209 0  85.81199439754931 438.5266528008431 0  91.06906334717917 442.9791630582355 0  96.44682221438322 447.2851276501571 0  101.9411872243843 451.441276702356 0  107.5479859945825 455.4444540643537 0  113.2629608446994 459.2916198108319 0  119.0817718768376 462.9798524393601 0  125.0000003647644 466.5063511567065 0  131.0131521012763 469.8684379967393 0  137.1166607840049 473.0635598376539 0  143.3058914748804 476.0892903390826 0  149.5761441732679 478.9433318113714 0  155.9226573130112 481.6235169255377 0  162.3406114779862 484.1278104026658 0  168.8251329570439 486.4543105138039 0  175.3712974805475 488.601250542119 0  181.9741340135204 490.5670001408953 0  188.6286284005059 492.3500665318597 0  195.3297273788229 493.9490956972913 0  202.0723421640089 495.3628733414168 0  208.8513525529672 496.5903258712308 0  215.6616106544547 497.6305211744985 0  222.4979448327038 498.4826693384772 0  229.3551637102845 499.1461232581612 0  236.2280599621369 499.6203791111485 0  243.1114144470173 499.9050767573145 0  155.2373389820306 474.8197567317462 0  25.36256300907667 153.9152755065208 0  432.3709625126712 412.6214396304305 0  6.013151705810699 246.637913163471 0  246.6379131630491 493.986848294322 0  338.6995838441862 22.68244767887072 0  477.3175523131281 338.6995838660569 0  493.9868482700757 246.6379131399102 0  246.6201155078769 6.218451882810491 0  417.6179310263282 72.7156044707053 0  102.2232990934413 445.0100869616822 0  63.66330858966404 92.20354579482142 0  391.3105220491464 50.73522820883105 0  72.79295043967942 418.0702734974704 0  448.290574428537 108.25674339002 0  402.4604651193511 440.7462829841712 0  97.55317348421397 59.11376320116034 0  136.7376477664901 33.58246472647134 0  363.3288394375288 465.6947312928271 0  44.0678766556007 381.0860953771871 0  469.6905266180034 142.3890690100806 0  22.68244791668644 338.6995843487432 0  338.699584349159 477.317552078365 0  173.389488083762 18.6681884918202 0  483.4809734778481 179.7121987795732 0  13.50237455842738 306.4709525540879 0  305.9825168523021 487.24416992
[...]
<PointData  Vectors="f_12"> 
<DataArray  type="Float64"  Name="f_12"  NumberOfComponents="3" format="ascii">7.7793754502097401e-01 4.5623424400580409e-01 7.8920600010134667e-01  7.9342285188630757e-01 5.4333902523952982e-01 7.0018483034579448e-01  6.3761336454100592e-01 1.3732770696585408e-01 7.4792419093325291e-01  7.8511872930686633e-01 7.3868186800339863e-01 4.0936224198664073e-01  6.3767923115994007e-01 1.3740004447239718e-01 7.4810591684332983e-01  6.3797488505864641e-01 1.3772761500896391e-01 7.4891653101683608e-01  6.3838849657034713e-01 1.3818672858710221e-01 7.5004879169100214e-01  6.3900183270204103e-01 1.3887125865397293e-01 7.5172076204610416e-01  6.3976690916406853e-01 1.3973132649876244e-01 7.5379244835422676e-01  6.4068428581749337e-01 1.4077138323666413e-01 7.5625760523913432e-01  6.4174665117705054e-01 1.4198827418879909e-01 7.5908532682603069e-01  6.4293709281395151e-01 1.4336744954639738e-01 7.6222040433727534e-01  6.4425720652066321e-01 1.4491595574919661e-01 7.6565559082464774e-01  6.4570954119795598e-01 1.4664409425494584e-01 7.6938153843006740e-01  6.4734470484767115e-01 1.4861968007090604e-01 7.7351178572994828e-01  6.4896140664866719e-01 1.5060292470930192e-01 7.7753003597733439e-01  6.5085565864286432e-01 1.5296921679105011e-01 7.8214593092067797e-01  6.5274791905163909e-01 1.5537673676412334e-01 7.8666192586826889e-01  6.5476131507717028e-01 1.5798612233872483e-01 7.9136309135732552e-01  6.5686069910861034e-01 1.6076099176440847e-01 7.9614622761050102e-01  6.5903033350411000e-01 1.6368756004187152e-01 8.0096104346736341e-01  6.6134090793614453e-01 1.6687148036286853e-01 8.0594304444025577e-01  6.6373657406621900e-01 1.7024297117619541e-01 8.1095509644821540e-01  6.6615264868875856e-01 1.7372078210363570e-01 8.1583931861826831e-01  6.6865512796992654e-01 1.7740367932234222e-01 8.2072201399000788e-01  6.7126966463703641e-01 1.8134366254180154e-01 8.2562249719755476e-01  6.7399765319412774e-01 1.8555283923324764e-01 8.3052038752648072e-01  6.7672432988428244e-01 1.8986336702472964e-01 8.3519062107076625e-01  6.7951630971306898e-01 1.9438675722844811e-01 8.3973400471080129e-01  6.8243656917203599e-01 1.9923770873181487e-01 8.4422466443109323e-01  6.8536756978969104e-01 2.0423148326771437e-01 8.4846111693405069e-01  6.8837601027957773e-01 2.0949307923911628e-01 8.5251374132045166e-01  6.9144209113429089e-01 2.1499422363988743e-01 8.5634421853208031e-01  6.9453367044327496e-01 2.2069073008358950e-01 8.5988164951370472e-01  6.9772877537500033e-01 2.2673979925979743e-01 8.6318780097509962e-01  7.0094931235874458e-01 2.3300274228965165e-01 8.6616530133822500e-01  7.0416961913710230e-01 2.3944006511426805e-01 8.6876577616517847e-01  7.0746611436842333e-01 2.4621545809567982e-01 8.7103081546500949e-01  7.1082815246601483e-01 2.5332350755115512e-01 8.7292099366695886e-01  7.1417685662490682e-01 2.6060777826159648e-01 8.7436974237715082e-01  7.1750906076589438e-01 2.6806684862971170e-01 8.7536660559326152e-01  7.2088767635339768e-01 2.7585169429804418e-01 8.7591148361357907e-01  7.2429566039819693e-01 2.8393716373022154e-01 8.7597368533433428e-01  7.2767400880644839e-01 2.9219508243214043e-01 8.7553488223899323e-01  7.3105394950809655e-01 3.0070988647780977e-01 8.7457491917088159e-01  7.3441804844113434e-01 3.0944451736799194e-01 8.7308756534404997e-01  7.3775020143398817e-01 3.1836714266022736e-01 8.7106507512750164e-01  7.4103693802217907e-01 3.2744336236333105e-01 8.6852106132204632e-01  7.4432297507786593e-01 3.3681474387767324e-01 8.6538360002014114e-01  7.4754317874110832e-01 3.4629193666805486e-01 8.6173168521401966e-01  7.5070515966826301e-01 3.5591136844233995e-01 8.5753745409411930e-01  7.5380494633919914e-01 3.6565544243791015e-01 8.5281920285587598e-01  7.5683365861839857e-01 3.7550389247523575e-01 8.4758842774114085e-01  7.5980092485509543e-01 3.8549148702385655e-01 8.4182627736327098e-01  7.6267943843130093e-01 3.9552954768658311e-01 8.3559011013536166e-01  7.6546108946446900e-01 4.0558851942970142e-01 8.2891086666532610e-01  7.6816280690628791e-01 4.1572850128367356e-01 8.2175383196013307e-01  7.7076686184304044e-01 4.2588031401928450e-01 8.1418451346141707e-01  7.7326428951689530e-01 4.3600917396170591e-01 8.0622934978636873e-01  7.7563477599129560e-01 4.4599524517319422e-01 7.9805235129028484e-01  7.8011485453845997e-01 4.6624026331346285e-01 7.8025879445666491e-01  7.8217071415310513e-01 4.7617298862064900e-01 7.7103096384210434e-01  7.8410051527294755e-01 4.8597424851237986e-01 7.6159588667645894e-01  7.8593025987206322e-01 4.9575048531588606e-01 7.5186187684274419e-01  7.8763244371164798e-01 5.0536151458515188e-01 7.4199831591799714e-01  7.8922147857054847e-01 5.1485925198774440e-01 7.3195735456118638e-01  7.9068828527048118e-01 5.2420072207702828e-01 7.2180526471422157e-01  7.9203853711883421e-01 5.3339152457445949e-01 7.1155043762877757e-01  7.9327181229484167e-01 5.4241109470103210e-01 7.0123512200221993e-01  7.9438738694187527e-01 5.5124096442959247e-01 6.9089609702043198e-01  7.9539202557793176e-01 5.5990842927667939e-01 6.8051497196992017e-01  7.9628005505118105e-01 5.6834168669177398e-01 6.7019748110774113e-01  7.9706317192734444e-01 5.7660786591454294e-01 6.5987711288752904e-01  7.9773839569815597e-01 5.8465973968603036e-01 6.4962437738462242e-01  7.9831046756667723e-01 5.9250149424998066e-01 6.3945064586077049e-01  7.9878114076934414e-01 6.0011858623542047e-01 6.2938891754223625e-01  7.9915559266712288e-01 6.0751739779898062e-01 6.1944497534235099e-01  7.9943674382982677e-01 6.1469525228866928e-01 6.0963554465389214e-01  7.9962917829586910e-01 6.2165416576698718e-01 5.9997109271451576e-01  7.9973746834452741e-01 6.2838732093778804e-01 5.9047428067628560e-01  7.9976589716193347e-01 6.3490708580431676e-01 5.8113936021248103e-01  7.9971599664992044e-01 6.4117360533633172e-01 5.7203230552192652e-01  7.9959531891768187e-01 6.4723533478977757e-01 5.6309865588340535e-01  7.9940870938325992e-01 6.5305189584415513e-01 5.5440752565134854e-01  7.9915998306486258e-01 6.5865314219113102e-01 5.4592526650914797e-01  7.9885409987554556e-01 6.6403450636515537e-01 5.3766892414949752e-01  7.9849570039181994e-01 6.6919675969230186e-01 5.2964701604376119e-01  7.9808970904146392e-01 6.7414076429988534e-01 5.2186795907971639e-01  7.9764230477402243e-01 6.7886699122091199e-01 5.1434123929452569e-01  7.9715663491783118e-01 6.8338452253521964e-01 5.0706086213155555e-01  7.9663860303024203e-01 6.8769088526519273e-01 5.0003978019949447e-01  7.9609295736321650e-01 6.9179217519636238e-01 4.9327708136069748e-01  7.9552223401250355e-01 6.9570224552013415e-01 4.8675732918919490e-01  7.9493487520246531e-01 6.9940503610006044e-01 4.8051649966100252e-01  7.9433804647274786e-01 7.0288815936421445e-01 4.7458353881830290e-01  7.9372724483178969e-01 7.0621105101982296e-01 4.6886525061575041e-01  7.9311061734570887e-01 7.0935456850454426e-01 4.6340176840154668e-01  7.9250030292351281e-01 7.1227894506416689e-01 4.5826865885116430e-01  7.9188784225467956e-01 7.1505533579009439e-01 4.5334946095251299e-01  7.9127810382068053e-01 7.1768266246686541e-01 4.4865292360373166e-01  7.9069094028737807e-01 7.2008912721915130e-01 4.4431197593296001e-01  7.9011547321159781e-01 7.2234139993490942e-01 4.4021409934461214e-01  7.8955974518941563e-01 7.2443073917196754e-01 4.3638253443481267e-01  7.8902342579658369e-01 7.2637184707531322e-01 4.3279555640250084e-01  7.8851289631834209e-01 7.2815513873712168e-01 4.2947592748520008e-01  7.8802920980253932e-01 7.2979070472029484e-01 4.2641026491724071e-01  7.8757681130181489e-01 7.3127576238963754e-01 4.2360872190232701e-01  7.8715889945136619e-01 7.3261117936027076e-01 4.2107437826860383e-01  7.8677251268497883e-01 7.3381655980563532e-01 4.1877430643881175e-01  7.8641985332818398e-01 7.3489402264051895e-01 4.1670829618140171e-01  7.8610756626518208e-01 7.3583030332593757e-01 4.1490506466730931e-01  7.8583798511281366e-01 7.3662395842993633e-01 4.1336996333023113e-01  7.8561188282004490e-01 7.3727929233030542e-01 4.1209777841282219e-01  7.8542248696104211e-01 7.3782231263071607e-01 4.1104081220323391e-01  7.8527834544833330e-01 7.3823192963065154e-01 4.1024172266719461e-01  7.8517528354454813e-01 7.3852340331715238e-01 4.0967238562446889e-01  7.8511833568571898e-01 7.3868115205882723e-01 4.0936294532212592e-01  7.8510288109063830e-01 7.3872928655843750e-01 4.0927060168265605e-01  7.8519634209358447e-01 7.3846252333979268e-01 4.0979083446067088e-01  7.8530570936762123e-01 7.3815343288819957e-01 4.1039462576904862e-01  7.8545246665269797e-01 7.3773561418618994e-01 4.1120931845054487e-01  7.8564295862140610e-01 7.3718745401423735e-01 4.1227548827593224e-01  7.8587395693318640e-01 7.3651494955860930e-01 4.1357979469127071e-01  7.8613708382118341e-01 7.3573880631624688e-01 4.1508028948177339e-01  7.8643660139427463e-01 7.3484101700162541e-01 4.1680933525108865e-01  7.8674627322507029e-01 7.3390026271335285e-01 4.1861509635760735e-01  7.8712106027263407e-01 7.3273245517439156e-01 4.2084416585091999e-01  7.8751417512999222e-01 7.3147882446960133e-01 4.2322444590864866e-01  7.8793212500102094e-01 7.3011372934480978e-01 4.2580255016194418e-01  7.8836513615091786e-01 7.2866468090979375e-01 4.2852435735637628e-01  7.8882405644189035e-01 7.2708170314382448e-01 4.3147871005771093e-01  7.8930998643152417e-01 7.2535041568220260e-01 4.3468827600791077e-01  7.8980668025581768e-01 7.2352094432089686e-01 4.3805687405449650e-01  7.9031576905138712e-01 7.2157913367632265e-01 4.4160745911944771e-01  7.9083448403942980e-01 7.1952375395242230e-01 4.4533818476843118e-01  7.9136135865696378e-01 7.1734866366427608e-01 4.4925619524929433e-01  7.9189680158794595e-01 7.1503820902364956e-01 4.5338494452266043e-01  7.9243600457098018e-01 7.1260382953191503e-01 4.5770078013041665e-01  7.9297226195898052e-01 7.1006264091363702e-01 4.6216922112276765e-01  7.9350450274590123e-01 7.0740689163492287e-01 4.6680014529757607e-01  7.9403189669002894e-01 7.0462774811372220e-01 4.7160513691925804e-01  7.9455133088404251e-01 7.0172637035917385e-01 4.7657801780413783e-01  7.9506054280817218e-01 6.9870051831754254e-01 4.8171861550861156e-01  7.9555635925869717e-01 6.9555253880903445e-01 4.8701881111192774e-01  7.9603681040965790e-01 6.9227857405051918e-01 4.9248103391115339e-01  7.9649894626587048e-01 6.8888088269399750e-01 4.9809742133705026e-01  7.9694044242390671e-01 6.8535823024669551e-01 5.0386590203896719e-01  7.9735803996405563e-01 6.8171952732677510e-01 5.0976819449888933e-01  7.9774995772725632e-01 6.7795950494845181e-01 5.1580870727853678e-01  7.9811454816975014e-01 6.7406572587159996e-01 5.2200284656011997e-01  7.9845053081465545e-01 6.7003176099483364e-01 5.2835664822943018e-01  7.9875416395473608e-01 6.6586760759478758e-01 5.3484930662773289e-01  7.9902318079323065e-01 6.6157473369572017e-01 5.4147422619996965e-01  7.9925565225776118e-01 6.5715523697465439e-01 5.4822400464042453e-01  7.9944926417641482e-01 6.5260373275216410e-01 5.5510167326595961e-01  7.9960153984645999e-01 6.4792383043799717e-01 5.6209730690738202e-01  7.9971117852091389e-01 6.4305853997024998e-01 5.6928868718618630e-01  7.9977541948211150e-01 6.3806701756965156e-01 5.7658465330996012e-01  7.9979124071393104e-01 6.3296094780113243e-01 5.8396176535559152e-01  7.9975747052312640e-01 6.2768051936271752e-01 5.9150091927385806e-01  7.9967021460473764e-01 6.2223282577753647e-01 5.9918463970617386e-01  7.9952698719642246e-01 6.1662049787666007e-01 6.0700117764119033e-01  7.9932849871796863e-01 6.1090299121798508e-01 6.1486361231053033e-01  7.9906460340391139e-01 6.0494476887440962e-01 6.2294651828601155e-01  7.9873820472999957e-01 5.9884490668240786e-01 6.3110871757729903e-01  7.9834638687797321e-01 5.9257453016021377e-01 6.3938042598444411e-01  7.9788345625463153e-01 5.8614005851337481e-01 6.4774366966442110e-01  7.9734599969558095e-01 5.7949047697361822e-01 6.5625430826137843e-01  7.9673027565628318e-01 5.7264496670290232e-01 6.6487697818612213e-01  7.9603377284258370e-01 5.6561444096599889e-01 6.7358419008680459e-01  7.9525333359947115e-01 5.5839292930031981e-01 6.8237249675408995e-01  7.9438563038087096e-01 5.5097722782650049e-01 6.9123293581321255e-01  7.9236229895011934e-01 5.3548410707295857e-01 7.0920489045373791e-01  7.9120300246036268e-01 5.2743517340818746e-01 7.1825012705981461e-01  7.8993748191236757e-01 5.1916947382447287e-01 7.2733120362758630e-01  7.8856342297540705e-01 5.1069304030830043e-01 7.3642068441784858e-01  7.8707578431943825e-01 5.0200331152759836e-01 7.4550333193325125e-01  7.8546895315801502e-01 4.9309476875044667e-01 7.5456212716792848e-01  7.8374017572826260e-01 4.8397662172192929e-01 7.6356655122739969e-01  7.8188503746636862e-01 4.7464933853733937e-01 7.7249121051910874e-01  7.7989989277207861e-01 4.6511854293816102e-01 7.8130692161580362e-01  7.7778035684514957e-01 4.5538902161097161e-01 7.8998067138880845e-01  7.7552425822478011e-01 4.4547271780871306e-01 7.9847815423663837e-01  7.7313221911307839e-01 4.3539076249517883e-01 8.0674831102346289e-01  7.7060211584197846e-01 4.2515691926732824e-01 8.1475471058109517e-01  7.6792520874802705e-01 4.1475583930137411e-01 8.2247889159933263e-01  7.6511618603667775e-01 4.0426129307903719e-01 8.2983576918479796e-01  7.6215057001010966e-01 3.9360760823218865e-01 8.3683680158181584e-01  7.5903874720882070e-01 3.8284665718464828e-01 8.4341813841988955e-01  7.5580443841347833e-01 3.7207943447366471e-01 8.4947635651118092e-01  7.5242700736337120e-01 3.6124724692226634e-01 8.5503547366507104e-01  7.4892161292511183e-01 3.5041497252178860e-01 8.6001182867413917e-01  7.4528314186287792e-01 3.3958064225280388e-01 8.6438914037335124e-01  7.4152616016124773e-01 3.2879819300219926e-01 8.6811466228344980e-01  7.3765337735325276e-01 3.1808470347030166e-01 8.7115583067172542e-01  7.3367284566910695e-01 3.0747047386887144e-01 8.7348546030678298e-01  7.2961000906891582e-01 2.9702768633374366e-01 8.7506815359332746e-01  7.2546701718519957e-01 2.8676419385087465e-01 8.7589256892774525e-01  7.2124161188794611e-01 2.7666987954998840e-01 8.7596173840685210e-01  7.1698823498663344e-01 2.6687966402434116e-01 8.7525640520360370e-01  7.1267592090770493e-01 2.5731133667646766e-01 8.7379299181533021e-01  7.0834941425472364e-01 2.4805948785701112e-01 8.7158520711367138e-01  7.0402555593357896e-01 2.3914544560356804e-01 8.6867295357977281e-01  6.9971488345171096e-01 2.3057945583422210e-01 8.6508320700952412e-01  6.9543877287243916e-01 2.2238634982221761e-01 8.6086841986746820e-01  6.9120393311027073e-01 2.1456202965718812e-01 8.5606952583551232e-01  6.8701707065595019e-01 2.0710035993795559e-01 8.5073192420974619e-01  6.8295756096401594e-01 2.0011761668180297e-01 8.4500887974655592e-01  6.7901266581262942e-01 1.9356478482216372e-01 8.3894162193274580e-01  6.7512768693053227e-01 1.8732983968563785e-01 8.3249031424571351e-01  6.7140957147163471e-01 1.8155968946931367e-01 8.2588614093971935e-01  6.6786272651145451e-01 1.7623242318967344e-01 8.1920067730011759e-01  6.6445898412395754e-01 1.7127858230954565e-01 8.1243814016221516e-01  6.6123963390875296e-01 1.6673335159507660e-01 8.0573436059387593e-01  6.5818405672624891e-01 1.6254288820007090e-01 7.9910294487133560e-01  6.5536868330753351e-01 1.5878742378320040e-01 7.9276028519155717e-01  6.5272001082697317e-01 1.5534452792037209e-01 7.8659817914793040e-01  6.5029447739011859e-01 1.5226732271370669e-01 7.8078993918608919e-01  6.4807026610080809e-01 1.4950985619677246e-01 7.7532238378170926e-01  6.4603787745886487e-01 1.4704159408106721e-01 7.7021434867882255e-01  6.4426695865181671e-01 1.4493006968897176e-01 7.6568039644519337e-01  6.4271820634014354e-01 1.4311515882382639e-01 7.6164576203069079e-01  6.4133711218264766e-01 1.4151974761513617e-01 7.5799767719434130e-01  6.4019843460925441e-01 1.4022130372111710e-01 7.5495349260128808e-01  6.3929302896064788e-01 1.3919936306005279e-01 7.5251074351672453e-01  6.3857828460806765e-01 1.3839973048661419e-01 7.5056619691231630e-01  6.3806484629100479e-01 1.3782822119033544e-01 7.4916301075451630e-01  6.3776968865026895e-01 1.3750123462537028e-01 7.4835297991385874e-01  6.6015178477104763e-01 1.6522839165682410e-01 8.0340360530457500e-01  7.9978511717549472e-01 6.3611477900650870e-01 5.7941340410119413e-01  6.9675774375974053e-01 2.2487853792817197e-01 8.6223452157438585e-01  7.9388922220176605e-01 5.4698263955388182e-01 6.9593603196633802e-01  6.3829823383990125e-01 1.3808762815246764e-01 7.4980291976669000e-01  7.8937730205539725e-01 7.2508304201962126e-01 4.3517561533601551e-01  7.3969325341015391e-01 3.2369971061833758e-01 8.6962964674994581e-01  7.7912713162274005e-01 4.6160291338303472e-01 7.8448027176148238e-01  7.8523054672889370e-01 7.3834988353113307e-01 4.1000491972968162e-01  7.9742021877809732e-01 6.8097584227014440e-01 5.1095072777154915e-01  6.9374921400738065e-01 2.1923337858026914e-01 8.5902279650453961e-01  7.9718609574928068e-01 6.8323036156618810e-01 5.0732121186689116e-01  7.9461244566880662e-01 7.0130107462691826e-01 4.7729155642324306e-01  7.1918865793125675e-01 2.7190006338243383e-01 8.7571615623746613e-01  7.9966359014611510e-01 6.4419778452067511e-01 5.6758982887767884e-01  6.7849677817563714e-01 1.9271941159862874e-01 8.3811105734949132e-01  7.9380029508168948e-01 7.0584914668430820e-01 4.6949512335943833e-01  7.9013923152394727e-01 7.2224408520745587e-01 4.4039014050470315e-01  6.6088438000318717e-01 1.6623191567508389e-01 8.0498428125745580e-01  7.4696886967591813e-01 3.4455699464680578e-01 8.6244767025961633e-01  7.9898787906965418e-01 6.0402095247445431e-01 6.2416381313159497e-01  7.6930935610568396e-01 4.2007427900560806e-01 8.1859395043825101e-01  6.5233951341794338e-01 1.5485290513307132e-01 7.8569865655051530e-01  7.8746559608310895e-01 7.3162015898568122e-01 4.2295205292281107e-01  7.9502514272789093e-01 5.5665591016805216e-01 6.8443731899005666e-01  7.8088738952574377e-01 4.6981245628736806e-01 7.7700281864815379e-01  6.4411681873911908e-01 1.4475155013444868e-01 7.6529202485400882e-01  6.4570790214618334e-01 1.4664337509884096e-01 7.6938251271921021e-01  7.9889348990851339e-01 6.0166403484519104e-01 6.2734752512850755e-01  7.8670215343554761e-01 7.3401787997076584e-01 4.1838381578924255e-01  7.5852254116808560e-01 3.8114463192735287e-01 8.4439252286318300e-01  7.1559746478223052e-01 2.6376275768052521e-01 8.7484945677061843e-01  7.8587951855681581e-01 7.3648549265322127e-01 4.1363212747034822e-01  7.9010418747007105e-01 5.2041456026894117e-01 7.2595095827722778e-01  7.8781199294851190e-01 5.0625325429075285e-01 7.4109024661511691e-01  6.3997639124910355e-01 1.3996890923367908e-01 7.5435744793095638e-01  7.9226751400319595e-01 7.1333439403337207e-01 4.5639991368329330e-01  7.9915651454594561e-01 6.5909627337004273e-01 5.4526590718348000e-01  6.4030743753592179e-01 1.4034515443020909e-01 7.5524812421910226e-01  6.7379419771834226e-01 1.8523101896528305e-01 8.3018817747210860e-01  7.9695740717918540e-01 5.7510776837929045e-01 6.6179053874973393e-01  7.8564526428289039e-01 7.3716656701150973e-01 4.1231090928530334e-01  7.6932514736275437e-01 4.2021777174491071e-01 8.1845141275469735e-01  6.7071944906874603e-01 1.8050543342796055e-01 8.2461357343980324e-01  7.4939149704669594e-01 3.5187567318861651e-01 8.5935773955460815e-01  7.8535741221088851e-01 7.3799292580534548e-01 4.1070267474032546e-01  7.8790064434146945e-01 7.3020219654157925e-01 4.2563109408324096e-01  7.8512045345556980e-01 4.9134968785376620e-01 7.5629087206806433e-01  7.9867671613044844e-01 6.6666975496827774e-01 5.3358371316317765e-01  6.5199946225280192e-01 1.5442493473189850e-01 7.8488609659477548e-01  7.0637914642721500e-01 2.4395371916407843e-01 8.7034572065332894e-01  7.3160631031367929e-01 3.0210865789787211e-01 8.7439479370973638e-01  7.9223798129378031e-01 7.1349188000670671e-01 4.5612609576382457e-01  7.5728108167368580e-01 3.7694126970409542e-01 8.4681491321970681e-01  7.9959574577709913e-01 6.1917457408661547e-01 6.0345273584812542e-01  7.2632746121508973e-01 2.8887483859879698e-01 8.7577062585987686e-01  7.0647758193