<?xml version="1.0"?>
<VTKFile type="UnstructuredGrid"  version="0.1"  >
<UnstructuredGrid>
<Piece  NumberOfPoints="4940" NumberOfCells="9650">
<Points>
<DataArray  type="Float64"  NumberOfComponents="3"  format="ascii">500 250 0  0 250 0  250 500 0  250 0 0  256.8885856082646 499.9050767557906 0  263.7719401218049 499.6203791065173 0  270.6448364229772 499.1461232471188 0  277.5020553257866 498.4826693209355 0  284.3383895508592 497.6305211460281 0  291.1486476865662 496.5903258312597 0  297.9276581259182 495.3628732847843 0  304.6702729675493 493.9490956196674 0  311.3713719748657 492.3500664368026 0  318.0258664141369 490.5670000199653 0  324.6287029687753 488.6012504015818 0  331.1748675330201 486.4543103455647 0  337.6593890460416 484.1278102064655 0  344.0773432429536 481.6235166997244 0  350.4238564271474 478.9433315480048 0  356.694109139292 476.0892900492477 0  362.88333985546 473.0635595140469 0  368.9868485575419 469.8684376402048 0  375.0000003153078 466.5063507640667 0  380.9182288257928 462.9798520074548 0  386.7370398729688 459.2916193419558 0  392.4520147244077 455.444453565817 0  398.0588135356345 451.4412761437442 0  403.5531785622926 447.285127045646 0  408.9309374414144 442.9791624087773 0  414.1880064015299 438.5266521049243 0  419.3203932989752 433.9309773069245 0  424.324200661095 429.1956279150535 0  429.1956286596235 424.3241998957182 0  433.9309780058756 419.3203925397119 0  438.5266527445345 414.1880056671062 0  442.9791630130591 408.9309367076756 0  447.2851276060475 403.5531778422888 0  451.4412766621026 398.0588128303826 0  455.4444540361634 392.4520140460735 0  459.2916197786263 386.7370392045948 0  462.9798524073514 380.9182281752347 0  466.5063511234856 374.9999996927758 0  469.8684379657123 368.9868479560565 0  473.0635598144817 362.8833392617846 0  476.0892903190255 356.6941085676214 0  478.9433317963513 350.4238558609745 0  481.6235169154735 344.0773427117675 0  484.12781039012 337.6593885555221 0  486.4543105028062 331.1748670749914 0  488.601250531677 324.6287025528375 0  490.5670001317469 318.0258660188321 0  492.3500665291326 311.3713716102628 0  493.949095695951 304.6702726271575 0  495.3628733416623 297.9276578347343 0  496.5903258712341 291.1486474470129 0  497.6305211749058 284.3383893426084 0  498.4826693388848 277.502055163614 0  499.1461232580606 270.6448362909296 0  499.6203791109319 263.7719400417897 0  499.9050767571306 256.8885855596534 0  499.9050767559877 243.1114143988867 0  499.6203791069493 236.2280598860241 0  499.1461232485393 229.3551635941651 0  498.4826693235677 222.4979446979962 0  497.6305211491849 215.6616104719064 0  496.5903258357701 208.8513523404629 0  495.3628732906988 202.0723419043604 0  493.9490956264813 195.3297270628552 0  492.3500664487791 188.6286280724281 0  490.5670000344809 181.9741336371959 0  488.6012504175981 175.3712970824318 0  486.4543103623226 168.8251325157939 0  484.1278102222298 162.3406109960628 0  481.6235167152198 155.9226567951971 0  478.9433315621651 149.5761436051346 0  476.0892900516498 143.3058908657982 0  473.063559513628 137.1166601437124 0  469.8684376406648 131.0131514433083 0  466.5063507675389 124.9999996907064 0  462.9798520124137 119.0817711822745 0  459.2916193464549 113.2629601339176 0  455.4444535642773 107.5479852733717 0  451.4412761528674 101.9411864767781 0  447.2851270583545 96.44682145403524 0  442.9791624165781 91.06906256805769 0  438.5266521117469 85.81199360630404 0  433.9309773156125 80.67960671046254 0  429.1956279150353 75.67579933888632 0  424.3241998888952 70.80437133373906 0  419.3203925223282 66.06902197812161 0  414.1880056411937 61.47334723289828 0  408.9309366751728 57.0208369601728 0  403.5531778009394 52.71487236176898 0  398.058812796452 48.55872331295853 0  392.4520140187753 44.55554594490843 0  386.7370391799677 40.70838020528396 0  380.9182281475119 37.02014757560744 0  374.9999996718656 33.49364886444181 0  368.9868479340393 30.13156202237255 0  362.8833392380029 26.93644017348339 0  356.6941085456942 23.91070967062674 0  350.4238558420009 21.0566681953261 0  344.0773426899492 18.37648307566465 0  337.6593885328982 15.87218960140942 0  331.1748670549786 13.54568949032341 0  324.6287025315056 11.39874946165088 0  318.0258660010876 9.432999863235466 0  311.3713716017894 7.649933468721599 0  304.6702726190621 6.050904302234756 0  297.9276578269805 4.637126656823085 0  291.148647441857 3.409674127905504 0  284.3383893425031 2.369478825079682 0  277.502055159398 1.517330660648639 0  270.6448362875833 0.853876741662134 0  263.7719400401456 0.3796208889774277 0  256.8885855592052 0.09492324285704967 0  243.1114143979462 0.09492324403817065 0  236.2280598850882 0.3796208931023841 0  229.3551635938215 0.8538767514891958 0  222.4979446968584 1.517330676558146 0  215.6616104703111 2.369478851036291 0  208.8513523382973 3.409674164591252 0  202.0723419066374 4.637126708856528 0  195.3297270659513 6.050904372824903 0  188.628628074828 7.649933550613184 0  181.9741336377093 9.432999965373938 0  175.3712970793675 11.39874958336037 0  168.8251325057572 13.54568964112298 0  162.340610986655 15.87218978129263 0  155.9226567874317 18.37648328793418 0  149.576143602509 21.05666843898663 0  143.3058908718157 23.91070994551046 0  137.1166601505524 26.93644048291054 0  131.0131514451933 30.13156235831508 0  124.9999996848412 33.49364923584736 0  119.0817711715717 37.0201479941652 0  113.2629601211624 40.70838066187849 0  107.5479852622251 44.55554644345162 0  101.9411864693332 48.55872385260452 0  96.44682143286516 52.71487295812284 0  91.06906254351222 57.02083760363669 0  85.81199358272519 61.4733479087879 0  80.67960667988106 66.06902271253972 0  75.67579930062769 70.80437212218331 0  70.80437129287643 75.67580015310926 0  66.06902193673014 80.67960752263491 0  61.47334718684866 85.81199441168215 0  57.02083692524275 91.0690633672404 0  52.71487232786438 96.44682224262129 0  48.55872328070024 101.941187247437 0  44.55554591578033 107.5479860232332 0  40.7083801742321 113.2629608675606 0  37.02014754791168 119.0817718975441 0  33.49364883372994 125.000000381329 0  30.13156199866361 131.0131521097709 0  26.9364401549829 137.1166607985551 0  23.91070965524918 143.3058914868915 0  21.05666818346614 149.576144185037 0  18.37648306853811 155.9226573275967 0  15.8721895918909 162.3406114925245 0  13.54568948170046 168.8251329701392 0  11.39874945301878 175.3712974960928 0  9.432999857087736 181.9741340206533 0  7.649933466342702 188.6286284076045 0  6.050904301250966 195.3297273853278 0  4.637126656808988 202.0723421730917 0  3.409674127767772 208.8513525589684 0  2.369478824521138 215.6616106615248 0  1.517330660909465 222.4979448382452 0  0.8538767414496533 229.355163714981 0  0.3796208887135322 236.2280599646376 0  0.09492324266324204 243.1114144478261 0  0.0949232442452228 256.8885856095658 0  0.3796208935834784 263.7719401236316 0  0.8538767530323526 270.6448364248016 0  1.517330679476544 277.5020553295092 0  2.369478854618649 284.3383895555228 0  3.409674170191892 291.1486476952655 0  4.6371267162381 297.9276581311522 0  6.050904381420935 304.6702729724059 0  7.649933562385399 311.3713719716595 0  9.43299997979841 318.0258664133013 0  11.3987495994252 324.6287029719946 0  13.54568965885832 331.174867545904 0  15.87218979367188 337.6593890464085 0  18.37648329843151 344.0773432384132 0  21.05666844777872 350.423856417535 0  23.91070995156048 356.6941091410045 0  26.93644048988043 362.8833398632205 0  30.13156235982007 368.9868485575877 0  33.49364924138357 375.0000003247478 0  37.0201480006036 380.9182288389023 0  40.70838066758398 386.7370398875706 0  44.55554644477201 392.4520147396792 0  48.55872386086904 398.0588135419111 0  52.71487295981296 403.5531785693063 0  57.02083760525949 408.9309374584583 0  61.47334790862246 414.1880064170849 0  66.06902271205095 419.320393319588 0  70.80437211216579 424.3242006890749 0  75.67580013809859 429.195628692521 0  80.6796075127923 433.930978054209 0  85.81199439754931 438.5266528008431 0  91.06906334717917 442.9791630582355 0  96.44682221438322 447.2851276501571 0  101.9411872243843 451.441276702356 0  107.5479859945825 455.4444540643537 0  113.2629608446994 459.2916198108319 0  119.0817718768376 462.9798524393601 0  125.0000003647644 466.5063511567065 0  131.0131521012763 469.8684379967393 0  137.1166607840049 473.0635598376539 0  143.3058914748804 476.0892903390826 0  149.5761441732679 478.9433318113714 0  155.9226573130112 481.6235169255377 0  162.3406114779862 484.1278104026658 0  168.8251329570439 486.4543105138039 0  175.3712974805475 488.601250542119 0  181.9741340135204 490.5670001408953 0  188.6286284005059 492.3500665318597 0  195.3297273788229 493.9490956972913 0  202.0723421640089 495.3628733414168 0  208.8513525529672 496.5903258712308 0  215.6616106544547 497.6305211744985 0  222.4979448327038 498.4826693384772 0  229.3551637102845 499.1461232581612 0  236.2280599621369 499.6203791111485 0  243.1114144470173 499.9050767573145 0  155.2373389820306 474.8197567317462 0  25.36256300907667 153.9152755065208 0  432.3709625126712 412.6214396304305 0  6.013151705810699 246.637913163471 0  246.6379131630491 493.986848294322 0  338.6995838441862 22.68244767887072 0  477.3175523131281 338.6995838660569 0  493.9868482700757 246.6379131399102 0  246.6201155078769 6.218451882810491 0  417.6179310263282 72.7156044707053 0  102.2232990934413 445.0100869616822 0  63.66330858966404 92.20354579482142 0  391.3105220491464 50.73522820883105 0  72.79295043967942 418.0702734974704 0  448.290574428537 108.25674339002 0  402.4604651193511 440.7462829841712 0  97.55317348421397 59.11376320116034 0  136.7376477664901 33.58246472647134 0  363.3288394375288 465.6947312928271 0  44.0678766556007 381.0860953771871 0  469.6905266180034 142.3890690100806 0  22.68244791668644 338.6995843487432 0  338.699584349159 477.317552078365 0  173.389488083762 18.6681884918202 0  483.4809734778481 179.7121987795732 0  13.50237455842738 306.4709525540879 0  305.9825168523021 487.24416992
[...]
<PointData  Vectors="f_12"> 
<DataArray  type="Float64"  Name="f_12"  NumberOfComponents="3" format="ascii">7.2382018926175340e-01 2.8318110057913393e-01 8.7578474668038320e-01  7.5861207410422282e-01 3.8159347834684737e-01 8.4409344219146121e-01  5.5965373793672679e-01 8.2657817442767081e-02 4.7137722724908127e-01  7.9963091617943360e-01 6.4585099467678608e-01 5.6515460698630049e-01  5.5972144726642126e-01 8.2682158328715713e-02 4.7166165398045390e-01  5.5999443205108734e-01 8.2775246677657663e-02 4.7280095614388401e-01  5.6032315002840971e-01 8.2886755897608216e-02 4.7417255266455494e-01  5.6082342956751308e-01 8.3058958835634716e-02 4.7625465546491658e-01  5.6143676272067511e-01 8.3271873673496491e-02 4.7880408404794073e-01  5.6217049979624967e-01 8.3530735285583940e-02 4.8184799269790118e-01  5.6301673450229450e-01 8.3835339435244585e-02 4.8535058714383889e-01  5.6395619550687848e-01 8.4181419541348251e-02 4.8922880790509049e-01  5.6499738160903434e-01 8.4574150342352897e-02 4.9351492903253863e-01  5.6614742089186354e-01 8.5020083369771210e-02 4.9823306638297299e-01  5.6748837016256892e-01 8.5555643015951421e-02 5.0371339048459451e-01  5.6873814867257888e-01 8.6068586907829578e-02 5.0880258414001645e-01  5.7032535686723640e-01 8.6742611113631379e-02 5.1523379130990521e-01  5.7185104219603444e-01 8.7412491335654041e-02 5.2138504870360325e-01  5.7350182442262954e-01 8.8161399666913859e-02 5.2800545865976189e-01  5.7523515847847373e-01 8.8974519694543355e-02 5.3491620955274155e-01  5.7703188342957301e-01 8.9846497993943522e-02 5.4203482427427296e-01  5.7899544840434614e-01 9.0835354416435934e-02 5.4975922475818639e-01  5.8105551995725280e-01 9.1909518796231854e-02 5.5780442355158633e-01  5.8311778003858217e-01 9.3024085981149848e-02 5.6579255240681103e-01  5.8528836303412712e-01 9.4239236605535223e-02 5.7412970366242333e-01  5.8760719398780448e-01 9.5588287596732435e-02 5.8294867867311673e-01  5.9009139863630844e-01 9.7088018669850937e-02 5.9230022813616945e-01  5.9256183330912826e-01 9.8636559613021868e-02 6.0149730812002089e-01  5.9512599326772597e-01 1.0030572756388216e-01 6.1092970833494320e-01  5.9789928187606778e-01 1.0218140751827169e-01 6.2099959448762143e-01  6.0069190830171726e-01 1.0414490524617415e-01 6.3099842949243867e-01  6.0361947315883080e-01 1.0628607272839717e-01 6.4131931085997851e-01  6.0666205654394223e-01 1.0859862637082041e-01 6.5187534087410881e-01  6.0976447710768555e-01 1.1105190473394080e-01 6.6244810194812587e-01  6.1307227624547844e-01 1.1377533186301519e-01 6.7350229746451673e-01  6.1646084763585685e-01 1.1667948975632321e-01 6.8459476434887845e-01  6.1988228585542127e-01 1.1973283447069201e-01 6.9554288994911462e-01  6.2348586423402597e-01 1.2308288692398496e-01 7.0679409420669759e-01  6.2726669175165506e-01 1.2674693791359043e-01 7.1828660704858083e-01  6.3108658620308911e-01 1.3060564103498751e-01 7.2956456323543395e-01  6.3493678757542316e-01 1.3465912843771954e-01 7.4058105822367315e-01  6.3895122085970424e-01 1.3906519947328341e-01 7.5168153252736547e-01  6.4311786293853446e-01 1.4383202836653922e-01 7.6278372248558934e-01  6.4731750220932804e-01 1.4884421475246251e-01 7.7352591295959527e-01  6.5161892163422863e-01 1.5419881980243941e-01 7.8404868626089186e-01  6.5599837589320709e-01 1.5988306889720610e-01 7.9425429934136649e-01  6.6042939816781177e-01 1.6588017682655593e-01 8.0404293618882250e-01  6.6488777668253707e-01 1.7216570846964191e-01 8.1334615694633561e-01  6.6948106594930090e-01 1.7892475019726733e-01 8.2230825198508684e-01  6.7407498156466727e-01 1.8596195814441702e-01 8.3066663803394714e-01  6.7867906665579214e-01 1.9331691396209547e-01 8.3838526159759164e-01  6.8330551979297083e-01 2.0100708755524396e-01 8.4548689961281365e-01  6.8791789531844461e-01 2.0899160132051178e-01 8.5187746030733691e-01  6.9256478636198759e-01 2.1736119390510439e-01 8.5760916276533206e-01  6.9717628355808281e-01 2.2600304881949215e-01 8.6257043572903014e-01  7.0173232923356987e-01 2.3488077965954143e-01 8.6674208019303478e-01  7.0627453380732974e-01 2.4408151331818201e-01 8.7014817407597878e-01  7.1076085032837255e-01 2.5352020098545408e-01 8.7276465960245664e-01  7.1517671404210126e-01 2.6317326828021953e-01 8.7456144590611329e-01  7.1945517306110662e-01 2.7284042537590020e-01 8.7565606358062076e-01  7.2799145584717706e-01 2.9335768583862420e-01 8.7525213957322234e-01  7.3206163141730907e-01 3.0367486580580438e-01 8.7396102387858210e-01  7.3599998587081350e-01 3.1403049935733385e-01 8.7195816156576711e-01  7.3987897217607423e-01 3.2460856076512540e-01 8.6920727514149221e-01  7.4362051411005214e-01 3.3518368559861078e-01 8.6582427168005049e-01  7.4724757326504154e-01 3.4581236092618944e-01 8.6178943982428746e-01  7.5073996902726181e-01 3.5642739910744015e-01 8.5717033696582257e-01  7.5410666049448116e-01 3.6703856006459279e-01 8.5198602826385672e-01  7.5733850863494045e-01 3.7760158255084775e-01 8.4629367369329500e-01  7.6043002132031312e-01 3.8808416849063693e-01 8.4014193313219232e-01  7.6339657768641378e-01 3.9852489672639269e-01 8.3352990543163574e-01  7.6621125124017453e-01 4.0880860022010457e-01 8.2657272052645170e-01  7.6889945094116308e-01 4.1900785748613878e-01 8.1924862921933561e-01  7.7145003908801169e-01 4.2906828224316590e-01 8.1162110280473665e-01  7.7386536522717675e-01 4.3897704262697018e-01 8.0373132321356489e-01  7.7614303147823926e-01 4.4870544498554926e-01 7.9563220526084988e-01  7.7828867121467182e-01 4.5825407886696073e-01 7.8735011280092304e-01  7.8030365311958405e-01 4.6760915593062569e-01 7.7892474519171417e-01  7.8219173574302636e-01 4.7676392069104490e-01 7.7038829585815272e-01  7.8395490193380657e-01 4.8570184930501747e-01 7.6178230471531816e-01  7.8560108805193474e-01 4.9443927406544164e-01 7.5311412619429341e-01  7.8711991083207766e-01 5.0290641860270224e-01 7.4447355415959482e-01  7.8853137789248517e-01 5.1117029000666669e-01 7.3582160512784855e-01  7.8982785396513877e-01 5.1916290540810295e-01 7.2724755511723094e-01  7.9102025191304937e-01 5.2692010671520706e-01 7.1873480880690999e-01  7.9211163363986814e-01 5.3443053266391072e-01 7.1031530133829990e-01  7.9310618216549211e-01 5.4169080240572454e-01 7.0201110271875777e-01  7.9400819764800146e-01 5.4869695815906772e-01 6.9384504742245623e-01  7.9482166920678310e-01 5.5543728472247111e-01 6.8584761701608687e-01  7.9555283057300907e-01 5.6192736021930700e-01 6.7801777558142173e-01  7.9620530971834813e-01 5.6815605307943784e-01 6.7038302088407531e-01  7.9678461479860829e-01 5.7412821212050913e-01 6.6295289618890518e-01  7.9729731455064656e-01 5.7986963413057535e-01 6.5570793346964440e-01  7.9774415159940981e-01 5.8533094296705013e-01 6.4872460833287937e-01  7.9812789466958922e-01 5.9048890657711472e-01 6.4204552510181667e-01  7.9846260415643799e-01 5.9546094107368208e-01 6.3553052210675631e-01  7.9874835029953328e-01 6.0019363226490285e-01 6.2926057510223610e-01  7.9898338194741303e-01 6.0460276613397035e-01 6.2335608239816576e-01  7.9918133245030321e-01 6.0883088892783133e-01 6.1763747886860632e-01  7.9934527965610824e-01 6.1286165130529913e-01 6.1213677195579219e-01  7.9947073719135764e-01 6.1654409185514980e-01 6.0706456980246726e-01  7.9956867316751890e-01 6.2002692074903420e-01 6.0222856414627168e-01  7.9964177806428771e-01 6.2326814532717323e-01 5.9769323033600952e-01  7.9969413312436610e-01 6.2629672875352349e-01 5.9342607066537134e-01  7.9972805331893060e-01 6.2909063251745045e-01 5.8946303891458762e-01  7.9974710688493766e-01 6.3166834226096846e-01 5.8578449478125294e-01  7.9975393168926512e-01 6.3401656681153684e-01 5.8241456720911766e-01  7.9975127689024939e-01 6.3613200794026614e-01 5.7936317692603312e-01  7.9974184104189405e-01 6.3805494041362110e-01 5.7657689437139792e-01  7.9972775389618189e-01 6.3978402856187888e-01 5.7406128738942819e-01  7.9971090460016980e-01 6.4128412279278046e-01 5.7187099737430047e-01  7.9969267659114829e-01 6.4255263364713189e-01 5.7001222806703467e-01  7.9967489203159792e-01 6.4359598228056969e-01 5.6847914159442359e-01  7.9965871352923190e-01 6.4447328894270739e-01 5.6718760047169947e-01  7.9964566151003136e-01 6.4512912027086822e-01 5.6622036461038427e-01  7.9963622975516901e-01 6.4559920425248929e-01 5.6552665360577259e-01  7.9963093620069114e-01 6.4582841892045117e-01 5.6518746564634736e-01  7.9963120091913265e-01 6.4597476715540714e-01 5.6497440066405247e-01  7.9964008735198422e-01 6.4549368275508467e-01 5.6568380471728252e-01  7.9965130216924818e-01 6.4499107989203175e-01 5.6642642601017379e-01  7.9966542236013061e-01 6.4432025236062984e-01 5.6741617398168265e-01  7.9968219327074042e-01 6.4343418193451196e-01 5.6872089705529771e-01  7.9970041671444025e-01 6.4233944891765848e-01 5.7032876705910873e-01  7.9971870606904583e-01 6.4109112001839963e-01 5.7215766325774919e-01  7.9973581298817886e-01 6.3964514908985104e-01 5.7426920526165393e-01  7.9975124740355463e-01 6.3818729340093783e-01 5.7639346629103472e-01  7.9976130713516491e-01 6.3629398329162712e-01 5.7913783801812369e-01  7.9976501877464512e-01 6.3429533825324758e-01 5.8202213143980064e-01  7.9976115939935277e-01 6.3212988251182201e-01 5.8513342481193753e-01  7.9974903273974385e-01 6.2985621665126956e-01 5.8838444279871971e-01  7.9972440022259561e-01 6.2737437933506446e-01 5.9191316616422185e-01  7.9968407108233441e-01 6.2465311971612913e-01 5.9575901046083080e-01  7.9962868351968974e-01 6.2180597245239877e-01 5.9975793638878705e-01  7.9955550502333039e-01 6.1879760543097617e-01 6.0395548869083970e-01  7.9946208245938422e-01 6.1562979788564054e-01 6.0834455064013748e-01  7.9934577424318098e-01 6.1229406955387466e-01 6.1293229118619319e-01  7.9920257862868160e-01 6.0876383925109356e-01 6.1774878770235386e-01  7.9903155845946272e-01 6.0505812012112192e-01 6.2276373107648575e-01  7.9883243709892282e-01 6.0121854030340305e-01 6.2791522817478451e-01  7.9860222840869433e-01 5.9723106176841234e-01 6.3321734084099701e-01  7.9833775453513534e-01 5.9307974702619826e-01 6.3868562463191636e-01  7.9803706102189975e-01 5.8877114696550559e-01 6.4430558308882813e-01  7.9769761326930955e-01 5.8430229424355407e-01 6.5007494571136260e-01  7.9731778150444044e-01 5.7968189298571304e-01 6.5597642300337355e-01  7.9689478763586452e-01 5.7490406833608498e-01 6.6201095242786756e-01  7.9642696009928882e-01 5.6997519973265398e-01 6.6816405682918811e-01  7.9591213991394827e-01 5.6489574005399590e-01 6.7442832835899957e-01  7.9535061830318454e-01 5.5968575846536095e-01 6.8077292644435461e-01  7.9473950236730972e-01 5.5433799779663206e-01 6.8719973011272806e-01  7.9407531707629786e-01 5.4884368141793760e-01 6.9371220448171400e-01  7.9335279869889319e-01 5.4317569998173876e-01 7.0033444924932442e-01  7.9257334260369738e-01 5.3736519279551953e-01 7.0702116908248969e-01  7.9173539147100280e-01 5.3141494779439213e-01 7.1376165075965825e-01  7.9083829744065826e-01 5.2533281258998921e-01 7.2053901408950549e-01  7.8987935403957210e-01 5.1911639374449792e-01 7.2734678565813604e-01  7.8885852286586466e-01 5.1277724696737303e-01 7.3416546777130143e-01  7.8775586419076560e-01 5.0621589802124711e-01 7.4108632953035947e-01  7.8658780615187218e-01 4.9953570856791013e-01 7.4799443110357744e-01  7.8535893553630820e-01 4.9277684073224876e-01 7.5483737071818147e-01  7.8404613339183482e-01 4.8582432932919145e-01 7.6171917629803287e-01  7.8264978226419257e-01 4.7869891432884859e-01 7.6860772818271506e-01  7.8116992526676599e-01 4.7141696826927509e-01 7.7546998434943959e-01  7.7962861065208222e-01 4.6408831606031214e-01 7.8219655793187692e-01  7.7796853357101214e-01 4.5647059297101572e-01 7.8898747942300052e-01  7.7623141390810479e-01 4.4876357532222999e-01 7.9565043314101180e-01  7.7439938483549664e-01 4.4089842858568895e-01 8.0222796128177276e-01  7.7247961287523070e-01 4.3292601558775029e-01 8.0866573174115375e-01  7.7044398955991666e-01 4.2474042720603428e-01 8.1502272657027486e-01  7.6829903679414813e-01 4.1638785342225365e-01 8.2124614040538180e-01  7.6604909901785145e-01 4.0790343419689096e-01 8.2728236851421744e-01  7.6368975904539660e-01 3.9928366449112690e-01 8.3311392735169698e-01  7.6121469952773391e-01 3.9052111258394850e-01 8.3872178414517984e-01  7.5588109687449800e-01 3.7251689665442628e-01 8.4918653509895947e-01  7.5302791852632744e-01 3.6333015134636665e-01 8.5394834845002610e-01  7.5004364618129171e-01 3.5402165725690615e-01 8.5835926283147268e-01  7.4692387963246687e-01 3.4459740056534843e-01 8.6237577889030981e-01  7.4366625030853317e-01 3.3506904685554539e-01 8.6596131181638980e-01  7.4026589131856502e-01 3.2544394586910491e-01 8.6907106020872804e-01  7.3672404462296670e-01 3.1574461954604222e-01 8.7166074879839672e-01  7.3303787726877190e-01 3.0598426056925909e-01 8.7368203976337189e-01  7.2920763271599365e-01 2.9618293437545973e-01 8.7509039322330873e-01  7.2523234564197503e-01 2.8635993982770752e-01 8.7583458372040601e-01  7.2111416720837218e-01 2.7653821775638748e-01 8.7587530931644431e-01  7.1685983806688769e-01 2.6675435844637863e-01 8.7515661155053093e-01  7.1247124910360260e-01 2.5702949419006432e-01 8.7364380125315000e-01  7.0794256469346784e-01 2.4736783698988360e-01 8.7129253246888994e-01  7.0330494860528836e-01 2.3785057509700741e-01 8.6808077251414373e-01  6.9852161644249600e-01 2.2842127916586141e-01 8.6394221127365567e-01  6.9362151184168686e-01 2.1914805365730478e-01 8.5887213799081852e-01  6.8865332220807030e-01 2.1013827546641503e-01 8.5287827429734098e-01  6.8358028308364205e-01 2.0132334592591886e-01 8.4593123727287334e-01  6.7843930224462379e-01 1.9278000250653127e-01 8.3803555930251539e-01  6.7322716692993190e-01 1.8450341669538847e-01 8.2919570385981611e-01  6.6796904579111371e-01 1.7653507408583891e-01 8.1944524655246509e-01  6.6267638068671286e-01 1.6888909032656668e-01 8.0881004152160674e-01  6.5736117013342510e-01 1.6157825482048604e-01 7.9732764635320563e-01  6.5207609032554592e-01 1.5466252067534206e-01 7.8513713147859687e-01  6.4680792946159393e-01 1.4811393975267628e-01 7.7223387609144289e-01  6.4156061747397286e-01 1.4191642800084026e-01 7.5867621231698845e-01  6.3641811306392815e-01 1.3615820111059371e-01 7.4470538343264070e-01  6.3131911232682647e-01 1.3074472224320896e-01 7.3021839345863393e-01  6.2633010952214541e-01 1.2572786158424959e-01 7.1544297129481116e-01  6.2146606325770437e-01 1.2109503451907544e-01 7.0049217131234653e-01  6.1673064360600138e-01 1.1682607222999050e-01 6.8543084471560234e-01  6.1214495835748339e-01 1.1291385314142149e-01 6.7038733420600438e-01  6.0770479224557061e-01 1.0932981761813122e-01 6.5540608787308563e-01  6.0340568378755088e-01 1.0604710991695869e-01 6.4052519926010099e-01  5.9935410635403141e-01 1.0311844321219836e-01 6.2617755846254408e-01  5.9550093488588074e-01 1.0048195893125991e-01 6.1224791771437792e-01  5.9175419322056866e-01 9.8054229847040750e-02 5.9844821872859588e-01  5.8825932624711508e-01 9.5908966377477853e-02 5.8535982409910770e-01  5.8500030159674099e-01 9.4012827807465629e-02 5.7297161323006873e-01  5.8191990769013813e-01 9.2311489534645824e-02 5.6110640789766120e-01  5.7906327586164874e-01 9.0811935105420488e-02 5.4997354507592855e-01  5.7638090938719466e-01 8.9473868590558281e-02 5.3940858078955001e-01  5.7397682921451498e-01 8.8330275555340149e-02 5.2985347968433905e-01  5.7172525703535193e-01 8.7309482363386759e-02 5.2083071281814242e-01  5.6970222156754291e-01 8.6431417438268585e-02 5.1266821391720052e-01  5.6786803196263969e-01 8.5668835154090822e-02 5.0522071924728607e-01  5.6620371634936784e-01 8.5004481175917412e-02 4.9842595246178562e-01  5.6478986818909971e-01 8.4462100312682600e-02 4.9262682399655011e-01  5.6357209502703276e-01 8.4009834774265726e-02 4.8761401756276412e-01  5.6247374273858219e-01 8.3613565755533359e-02 4.8307856984671721e-01  5.6159001506223261e-01 8.3304204535883344e-02 4.7941907583346843e-01  5.6090410507015298e-01 8.3070551295673187e-02 4.7657224072794580e-01  5.6036287359527670e-01 8.2889092919026547e-02 4.7432344347715472e-01  5.5997735742279520e-01 8.2761780303580015e-02 4.7272075863598251e-01  5.5977534481090829e-01 8.2697170518732085e-02 4.7188070447894404e-01  5.7844430080009790e-01 9.0496914499277797e-02 5.4754677087479453e-01  7.8608886841838477e-01 4.9677930921469560e-01 7.5079939508495619e-01  6.1238858215959735e-01 1.1319704278906721e-01 6.7124886783331061e-01  7.5982442832953279e-01 3.8572283142004166e-01 8.4165256380268205e-01  5.6056575007231868e-01 8.2962383111084170e-02 4.7517388970763891e-01  7.9964860790270320e-01 6.2404205715718364e-01 5.9659841711749906e-01  6.6336886642893467e-01 1.6999424870413316e-01 8.1024048568600970e-01  7.2620316318871181e-01 2.8890944101912353e-01 8.7565080184512212e-01  7.9963771641285419e-01 6.4503679563137317e-01 5.6634779820071912e-01  7.9514754266222132e-01 5.5830719042059418e-01 6.8239726169331139e-01  6.1057666420537571e-01 1.1162601086433654e-01 6.6513997088446863e-01  7.9555970569402235e-01 5.6163975333209204e-01 6.7839776888499048e-01  7.9793889983469590e-01 5.8795469186086469e-01 6.4533227380575986e-01  6.3924885971810208e-01 1.3928858229832033e-01 7.5247985548242502e-01  7.8781808364427375e-01 5.0695091438398487e-01 7.4026533237849779e-01  5.9454605256722715e-01 9.9919549151386997e-02 6.0881232552593600e-01  7.9843680938845241e-01 5.9468755506406257e-01 6.3656848143615052e-01  7.9956827315732648e-01 6.1959271952134709e-01 6.0284179657523496e-01  5.7900597207266236e-01 9.0833544084261586e-02 5.4981184990752441e-01  6.7572564027790250e-01 1.8842699651660852e-01 8.3352855321785280e-01  7.7728806053647093e-01 4.5375460601108619e-01 7.9129167327546834e-01  7.1029517066493209e-01 2.5233067743214166e-01 8.7263589439258327e-01  5.7188355741233454e-01 8.7424491747098002e-02 5.2151818573438513e-01  7.9975554470410359e-01 6.3424737756097338e-01 5.8208364099014454e-01  7.6233335612659225e-01 3.9473510152815117e-01 8.3598664665582256e-01  7.3109306628039550e-01 3.0096824004395867e-01 8.7448188144019767e-01  5.6529363650749176e-01 8.4686684023168798e-02 4.9473044492159435e-01  5.6634216533155124e-01 8.5057627895238269e-02 4.9899783059223779e-01  7.7700147101465666e-01 4.5216376265540437e-01 7.9273131855839174e-01  7.9973216881071574e-01 6.3811646998966709e-01 5.7647949979572988e-01  6.9079078898571200e-01 2.1411986915610740e-01 8.5551824980592095e-01  6.3303200484758282e-01 1.3263265461652882e-01 7.3517525609746337e-01  7.9969576981947155e-01 6.4207040567768547e-01 5.7071559105222525e-01  7.4940524404313413e-01 3.5232445442509208e-01 8.5902243077077456e-01  7.4524267578689629e-01 3.3964519656017711e-01 8.6429911656322922e-01  5.6196256949516354e-01 8.3454867725999346e-02 4.8098359323196055e-01  7.9904659584466708e-01 6.0602030606950330e-01 6.2143895100918412e-01  7.9120653587245293e-01 5.2782349804307216e-01 7.1777355238803675e-01  5.6205955389905737e-01 8.3470208907808222e-02 4.8136698993198224e-01  5.9082509363887203e-01 9.7465348842624921e-02 5.9500340952676634e-01  7.6903132870742585e-01 4.1921785218039148e-01 8.1916788093143478e-01  7.9967247506420569e-01 6.4314974233066757e-01 5.6912631052457130e-01  7.0845758801634739e-01 2.4863087938195705e-01 8.7151109112235303e-01  5.8764474972193959e-01 9.5606692139283495e-02 5.8309670293636717e-01  6.7707859769471890e-01 1.9072011512579662e-01 8.3578625349846292e-01  7.9965194047481492e-01 6.4451312755101942e-01 5.6712326043737327e-01  7.9974066191578741e-01 6.3207788649101349e-01 5.8519061023890862e-01  7.3827911684987957e-01 3.2018519422626585e-01 8.7046047777151303e-01  7.9260520946264068e-01 5.3800393573740890e-01 7.0624390510880120e-01  5.7151187228028932e-01 8.7215327739068468e-02 5.1997428482915053e-01  6.2273144266133540e-01 1.2236005991109140e-01 7.0448334904477128e-01  6.5483569424308885e-01 1.5822572974310539e-01 7.9160546969029977e-01  7.9907727940444284e-01 6.0616813427192495e-01 6.2125891694202262e-01  6.9096822899280574e-01 2.1428245041794844e-01 8.5578906543432098e-01  7.8181036423412320e-01 4.7455658247945365e-01 7.7252698460758218e-01  6.4597351051098761e-01 1.4721334918567494e-01 7.7014444440799501e-01  6.2444228266