<?xml version="1.0"?>
<VTKFile type="UnstructuredGrid"  version="0.1"  >
<UnstructuredGrid>
<Piece  NumberOfPoints="4940" NumberOfCells="9650">
<Points>
<DataArray  type="Float64"  NumberOfComponents="3"  format="ascii">500 250 0  0 250 0  250 500 0  250 0 0  256.8885856082646 499.9050767557906 0  263.7719401218049 499.6203791065173 0  270.6448364229772 499.1461232471188 0  277.5020553257866 498.4826693209355 0  284.3383895508592 497.6305211460281 0  291.1486476865662 496.5903258312597 0  297.9276581259182 495.3628732847843 0  304.6702729675493 493.9490956196674 0  311.3713719748657 492.3500664368026 0  318.0258664141369 490.5670000199653 0  324.6287029687753 488.6012504015818 0  331.1748675330201 486.4543103455647 0  337.6593890460416 484.1278102064655 0  344.0773432429536 481.6235166997244 0  350.4238564271474 478.9433315480048 0  356.694109139292 476.0892900492477 0  362.88333985546 473.0635595140469 0  368.9868485575419 469.8684376402048 0  375.0000003153078 466.5063507640667 0  380.9182288257928 462.9798520074548 0  386.7370398729688 459.2916193419558 0  392.4520147244077 455.444453565817 0  398.0588135356345 451.4412761437442 0  403.5531785622926 447.285127045646 0  408.9309374414144 442.9791624087773 0  414.1880064015299 438.5266521049243 0  419.3203932989752 433.9309773069245 0  424.324200661095 429.1956279150535 0  429.1956286596235 424.3241998957182 0  433.9309780058756 419.3203925397119 0  438.5266527445345 414.1880056671062 0  442.9791630130591 408.9309367076756 0  447.2851276060475 403.5531778422888 0  451.4412766621026 398.0588128303826 0  455.4444540361634 392.4520140460735 0  459.2916197786263 386.7370392045948 0  462.9798524073514 380.9182281752347 0  466.5063511234856 374.9999996927758 0  469.8684379657123 368.9868479560565 0  473.0635598144817 362.8833392617846 0  476.0892903190255 356.6941085676214 0  478.9433317963513 350.4238558609745 0  481.6235169154735 344.0773427117675 0  484.12781039012 337.6593885555221 0  486.4543105028062 331.1748670749914 0  488.601250531677 324.6287025528375 0  490.5670001317469 318.0258660188321 0  492.3500665291326 311.3713716102628 0  493.949095695951 304.6702726271575 0  495.3628733416623 297.9276578347343 0  496.5903258712341 291.1486474470129 0  497.6305211749058 284.3383893426084 0  498.4826693388848 277.502055163614 0  499.1461232580606 270.6448362909296 0  499.6203791109319 263.7719400417897 0  499.9050767571306 256.8885855596534 0  499.9050767559877 243.1114143988867 0  499.6203791069493 236.2280598860241 0  499.1461232485393 229.3551635941651 0  498.4826693235677 222.4979446979962 0  497.6305211491849 215.6616104719064 0  496.5903258357701 208.8513523404629 0  495.3628732906988 202.0723419043604 0  493.9490956264813 195.3297270628552 0  492.3500664487791 188.6286280724281 0  490.5670000344809 181.9741336371959 0  488.6012504175981 175.3712970824318 0  486.4543103623226 168.8251325157939 0  484.1278102222298 162.3406109960628 0  481.6235167152198 155.9226567951971 0  478.9433315621651 149.5761436051346 0  476.0892900516498 143.3058908657982 0  473.063559513628 137.1166601437124 0  469.8684376406648 131.0131514433083 0  466.5063507675389 124.9999996907064 0  462.9798520124137 119.0817711822745 0  459.2916193464549 113.2629601339176 0  455.4444535642773 107.5479852733717 0  451.4412761528674 101.9411864767781 0  447.2851270583545 96.44682145403524 0  442.9791624165781 91.06906256805769 0  438.5266521117469 85.81199360630404 0  433.9309773156125 80.67960671046254 0  429.1956279150353 75.67579933888632 0  424.3241998888952 70.80437133373906 0  419.3203925223282 66.06902197812161 0  414.1880056411937 61.47334723289828 0  408.9309366751728 57.0208369601728 0  403.5531778009394 52.71487236176898 0  398.058812796452 48.55872331295853 0  392.4520140187753 44.55554594490843 0  386.7370391799677 40.70838020528396 0  380.9182281475119 37.02014757560744 0  374.9999996718656 33.49364886444181 0  368.9868479340393 30.13156202237255 0  362.8833392380029 26.93644017348339 0  356.6941085456942 23.91070967062674 0  350.4238558420009 21.0566681953261 0  344.0773426899492 18.37648307566465 0  337.6593885328982 15.87218960140942 0  331.1748670549786 13.54568949032341 0  324.6287025315056 11.39874946165088 0  318.0258660010876 9.432999863235466 0  311.3713716017894 7.649933468721599 0  304.6702726190621 6.050904302234756 0  297.9276578269805 4.637126656823085 0  291.148647441857 3.409674127905504 0  284.3383893425031 2.369478825079682 0  277.502055159398 1.517330660648639 0  270.6448362875833 0.853876741662134 0  263.7719400401456 0.3796208889774277 0  256.8885855592052 0.09492324285704967 0  243.1114143979462 0.09492324403817065 0  236.2280598850882 0.3796208931023841 0  229.3551635938215 0.8538767514891958 0  222.4979446968584 1.517330676558146 0  215.6616104703111 2.369478851036291 0  208.8513523382973 3.409674164591252 0  202.0723419066374 4.637126708856528 0  195.3297270659513 6.050904372824903 0  188.628628074828 7.649933550613184 0  181.9741336377093 9.432999965373938 0  175.3712970793675 11.39874958336037 0  168.8251325057572 13.54568964112298 0  162.340610986655 15.87218978129263 0  155.9226567874317 18.37648328793418 0  149.576143602509 21.05666843898663 0  143.3058908718157 23.91070994551046 0  137.1166601505524 26.93644048291054 0  131.0131514451933 30.13156235831508 0  124.9999996848412 33.49364923584736 0  119.0817711715717 37.0201479941652 0  113.2629601211624 40.70838066187849 0  107.5479852622251 44.55554644345162 0  101.9411864693332 48.55872385260452 0  96.44682143286516 52.71487295812284 0  91.06906254351222 57.02083760363669 0  85.81199358272519 61.4733479087879 0  80.67960667988106 66.06902271253972 0  75.67579930062769 70.80437212218331 0  70.80437129287643 75.67580015310926 0  66.06902193673014 80.67960752263491 0  61.47334718684866 85.81199441168215 0  57.02083692524275 91.0690633672404 0  52.71487232786438 96.44682224262129 0  48.55872328070024 101.941187247437 0  44.55554591578033 107.5479860232332 0  40.7083801742321 113.2629608675606 0  37.02014754791168 119.0817718975441 0  33.49364883372994 125.000000381329 0  30.13156199866361 131.0131521097709 0  26.9364401549829 137.1166607985551 0  23.91070965524918 143.3058914868915 0  21.05666818346614 149.576144185037 0  18.37648306853811 155.9226573275967 0  15.8721895918909 162.3406114925245 0  13.54568948170046 168.8251329701392 0  11.39874945301878 175.3712974960928 0  9.432999857087736 181.9741340206533 0  7.649933466342702 188.6286284076045 0  6.050904301250966 195.3297273853278 0  4.637126656808988 202.0723421730917 0  3.409674127767772 208.8513525589684 0  2.369478824521138 215.6616106615248 0  1.517330660909465 222.4979448382452 0  0.8538767414496533 229.355163714981 0  0.3796208887135322 236.2280599646376 0  0.09492324266324204 243.1114144478261 0  0.0949232442452228 256.8885856095658 0  0.3796208935834784 263.7719401236316 0  0.8538767530323526 270.6448364248016 0  1.517330679476544 277.5020553295092 0  2.369478854618649 284.3383895555228 0  3.409674170191892 291.1486476952655 0  4.6371267162381 297.9276581311522 0  6.050904381420935 304.6702729724059 0  7.649933562385399 311.3713719716595 0  9.43299997979841 318.0258664133013 0  11.3987495994252 324.6287029719946 0  13.54568965885832 331.174867545904 0  15.87218979367188 337.6593890464085 0  18.37648329843151 344.0773432384132 0  21.05666844777872 350.423856417535 0  23.91070995156048 356.6941091410045 0  26.93644048988043 362.8833398632205 0  30.13156235982007 368.9868485575877 0  33.49364924138357 375.0000003247478 0  37.0201480006036 380.9182288389023 0  40.70838066758398 386.7370398875706 0  44.55554644477201 392.4520147396792 0  48.55872386086904 398.0588135419111 0  52.71487295981296 403.5531785693063 0  57.02083760525949 408.9309374584583 0  61.47334790862246 414.1880064170849 0  66.06902271205095 419.320393319588 0  70.80437211216579 424.3242006890749 0  75.67580013809859 429.195628692521 0  80.6796075127923 433.930978054209 0  85.81199439754931 438.5266528008431 0  91.06906334717917 442.9791630582355 0  96.44682221438322 447.2851276501571 0  101.9411872243843 451.441276702356 0  107.5479859945825 455.4444540643537 0  113.2629608446994 459.2916198108319 0  119.0817718768376 462.9798524393601 0  125.0000003647644 466.5063511567065 0  131.0131521012763 469.8684379967393 0  137.1166607840049 473.0635598376539 0  143.3058914748804 476.0892903390826 0  149.5761441732679 478.9433318113714 0  155.9226573130112 481.6235169255377 0  162.3406114779862 484.1278104026658 0  168.8251329570439 486.4543105138039 0  175.3712974805475 488.601250542119 0  181.9741340135204 490.5670001408953 0  188.6286284005059 492.3500665318597 0  195.3297273788229 493.9490956972913 0  202.0723421640089 495.3628733414168 0  208.8513525529672 496.5903258712308 0  215.6616106544547 497.6305211744985 0  222.4979448327038 498.4826693384772 0  229.3551637102845 499.1461232581612 0  236.2280599621369 499.6203791111485 0  243.1114144470173 499.9050767573145 0  155.2373389820306 474.8197567317462 0  25.36256300907667 153.9152755065208 0  432.3709625126712 412.6214396304305 0  6.013151705810699 246.637913163471 0  246.6379131630491 493.986848294322 0  338.6995838441862 22.68244767887072 0  477.3175523131281 338.6995838660569 0  493.9868482700757 246.6379131399102 0  246.6201155078769 6.218451882810491 0  417.6179310263282 72.7156044707053 0  102.2232990934413 445.0100869616822 0  63.66330858966404 92.20354579482142 0  391.3105220491464 50.73522820883105 0  72.79295043967942 418.0702734974704 0  448.290574428537 108.25674339002 0  402.4604651193511 440.7462829841712 0  97.55317348421397 59.11376320116034 0  136.7376477664901 33.58246472647134 0  363.3288394375288 465.6947312928271 0  44.0678766556007 381.0860953771871 0  469.6905266180034 142.3890690100806 0  22.68244791668644 338.6995843487432 0  338.699584349159 477.317552078365 0  173.389488083762 18.6681884918202 0  483.4809734778481 179.7121987795732 0  13.50237455842738 306.4709525540879 0  305.9825168523021 487.24416992
[...]
<PointData  Vectors="f_12"> 
<DataArray  type="Float64"  Name="f_12"  NumberOfComponents="3" format="ascii">4.9661825467727611e-01 2.8345720191023593e-01 7.5188652050094520e-02  4.8773774628219463e-01 2.2597535988448827e-01 8.0827286531791664e-02  5.7053151246463973e-01 5.8152501705902659e-01 9.1673723255875389e-02  4.8694329175760975e-01 1.1045928041557798e-01 1.4508988705111095e-01  5.7049745160979093e-01 5.8142470377095556e-01 9.1657791180286774e-02  5.7033243349279228e-01 5.8093597607502101e-01 9.1581985433447491e-02  5.7009289001781849e-01 5.8022580793791212e-01 9.1472145113303829e-02  5.6973882590520664e-01 5.7917313453641417e-01 9.1310943598297667e-02  5.6929559163913412e-01 5.7785131272080748e-01 9.1109544874780679e-02  5.6876419067760586e-01 5.7626052784204695e-01 9.0869209245020260e-02  5.6814920821087878e-01 5.7441095136500475e-01 9.0592636112477087e-02  5.6746021588648987e-01 5.7232802834599905e-01 9.0284893858641635e-02  5.6669781276188147e-01 5.7001019812929066e-01 8.9946696813407778e-02  5.6586195562724195e-01 5.6745260865276625e-01 8.9578947079835852e-02  5.6492998829647811e-01 5.6458106444903233e-01 8.9172670072640986e-02  5.6400088999456754e-01 5.6169847313722920e-01 8.8771220300880208e-02  5.6293230804165106e-01 5.5835576310447732e-01 8.8314721350675723e-02  5.6186042430288463e-01 5.5497447986032100e-01 8.7862266501695291e-02  5.6072758645124954e-01 5.5137079315232373e-01 8.7389644365520672e-02  5.5955204538244663e-01 5.4759835714900906e-01 8.6904636077665298e-02  5.5834164226924266e-01 5.4367798679076618e-01 8.6412024795695902e-02  5.5706364374888595e-01 5.3949749709563588e-01 8.5900372095141717e-02  5.5574646255694948e-01 5.3514753799451675e-01 8.5380600378490976e-02  5.5442049447694386e-01 5.3072395218146984e-01 8.4865221107554928e-02  5.5305559285240380e-01 5.2612415224851283e-01 8.4343416537526458e-02  5.5164050490208649e-01 5.2130369380081931e-01 8.3812360193873975e-02  5.5017621173082920e-01 5.1626240177683347e-01 8.3272325723111884e-02  5.4871509505831939e-01 5.1117612082234398e-01 8.2744298519822956e-02  5.4722655051112945e-01 5.0593595847520634e-01 8.2217840781305618e-02  5.4568346637785647e-01 5.0044242206711853e-01 8.1683336549716073e-02  5.4413890742466786e-01 4.9487940769594518e-01 8.1161401214217735e-02  5.4256244104878637e-01 4.8913371467503214e-01 8.0641793008298823e-02  5.4096424220570694e-01 4.8324022464476196e-01 8.0129053621740054e-02  5.3935812383266968e-01 4.7724644435085206e-01 7.9627182502807828e-02  5.3770947578743333e-01 4.7101740430336841e-01 7.9127597826755727e-02  5.3605374917126092e-01 4.6468364573366311e-01 7.8642823857168850e-02  5.3440131720337636e-01 4.5828375831400686e-01 7.8174552575964923e-02  5.3271819867004055e-01 4.5168132043810666e-01 7.7715631878911826e-02  5.3100954344081408e-01 4.4489066771495617e-01 7.7269550297599007e-02  5.2930993350161737e-01 4.3804746001752909e-01 7.6845216114880030e-02  5.2761964146804063e-01 4.3115134554399759e-01 7.6443693504161095e-02  5.2591140422026972e-01 4.2408822502130739e-01 7.6059714288347305e-02  5.2419316887677725e-01 4.1688792792854401e-01 7.5695519523144780e-02  5.2248918627580565e-01 4.0964599916231897e-01 7.5360342639373606e-02  5.2078549050336109e-01 4.0230313164185172e-01 7.5050542555420652e-02  5.1909039104005672e-01 3.9489364521447406e-01 7.4768704920650367e-02  5.1740960710811501e-01 3.8743987364662891e-01 7.4517293524323500e-02  5.1574902929395061e-01 3.7996503606096621e-01 7.4300697080354819e-02  5.1408850347598045e-01 3.7237726342068117e-01 7.4114760172396515e-02  5.1245704055821706e-01 3.6480885915819000e-01 7.3965226088945665e-02  5.1084943342248690e-01 3.5722965920859001e-01 7.3855330774764555e-02  5.0926869881526360e-01 3.4966007719860187e-01 7.3782337105434553e-02  5.0771725725917627e-01 3.4210454618264613e-01 7.3752402076548984e-02  5.0619153737326628e-01 3.3454784061936327e-01 7.3764255967265879e-02  5.0470302722026483e-01 3.2704519072687827e-01 7.3820260897577317e-02  5.0325541358965364e-01 3.1961280682283383e-01 7.3923569685360374e-02  5.0184037263905956e-01 3.1221294186595633e-01 7.4072265355401262e-02  5.0046733530604259e-01 3.0488853926379150e-01 7.4271752071492503e-02  4.9913887588097966e-01 2.9766638609255686e-01 7.4513471274659820e-02  4.9786485471474656e-01 2.9059196388467506e-01 7.4808484483354587e-02  4.9542484454582786e-01 2.7654345293663640e-01 7.5574688798454803e-02  4.9428506435186459e-01 2.6974151633309512e-01 7.6035486674442057e-02  4.9319950028893111e-01 2.6308526869776744e-01 7.6553394302833797e-02  4.9215624611496733e-01 2.5652299734908313e-01 7.7121808291849836e-02  4.9117103243385912e-01 2.5012249899017580e-01 7.7755516923460222e-02  4.9023407250062351e-01 2.4385793416559587e-01 7.8437856796454264e-02  4.8935257927509879e-01 2.3774610097458271e-01 7.9185841753205560e-02  4.8852268009268601e-01 2.3178465705916002e-01 7.9989399826604538e-02  4.8774633822993912e-01 2.2598247170645333e-01 8.0852311361283472e-02  4.8702401243239207e-01 2.2034555480047557e-01 8.1774659494824986e-02  4.8635205974564250e-01 2.1485783795910984e-01 8.2755462385289594e-02  4.8573613290750656e-01 2.0955728608389060e-01 8.3794119567195083e-02  4.8516858469155055e-01 2.0439943031449087e-01 8.4892932536413251e-02  4.8465303672483023e-01 1.9941312584718768e-01 8.6049124930269130e-02  4.8418735098469595e-01 1.9459128207593743e-01 8.7261917196983188e-02  4.8377167698277557e-01 1.8993857821345148e-01 8.8531296482677421e-02  4.8340367024632458e-01 1.8544954367723790e-01 8.9854459516315072e-02  4.8308261835461042e-01 1.8112188457644057e-01 9.1232400811990702e-02  4.8280682428926291e-01 1.7695228723490106e-01 9.2663210941589871e-02  4.8257504446609134e-01 1.7294287482019247e-01 9.4143420872007014e-02  4.8238499663018275e-01 1.6908386318231869e-01 9.5672577137496259e-02  4.8223767353079899e-01 1.6539450894081353e-01 9.7245089750271976e-02  4.8212864102480446e-01 1.6184523500398426e-01 9.8864281226608078e-02  4.8205714979303710e-01 1.5845738872298562e-01 1.0051711963749621e-01  4.8202104809048207e-01 1.5521141188396734e-01 1.0220878751051887e-01  4.8201848905234446e-01 1.5210804570962436e-01 1.0393395938548287e-01  4.8204738246589618e-01 1.4914469210073658e-01 1.0568819672649545e-01  4.8210596417460971e-01 1.4631913775070010e-01 1.0746791632780080e-01  4.8219125724343631e-01 1.4362943617005972e-01 1.0926491183745055e-01  4.8230213662439708e-01 1.4106859536228175e-01 1.1108027351383086e-01  4.8243563651501548e-01 1.3863660121174362e-01 1.1290446114137674e-01  4.8258967368423344e-01 1.3632876518360215e-01 1.1473358803395815e-01  4.8276283840839962e-01 1.3413665889979851e-01 1.1656809439805137e-01  4.8295139889052507e-01 1.3206637054266121e-01 1.1839188742531399e-01  4.8315235360878389e-01 1.3012351310882900e-01 1.2019161899735928e-01  4.8336628289996275e-01 1.2827715158176384e-01 1.2198697095620056e-01  4.8358977061795339e-01 1.2653484833705397e-01 1.2376171635102971e-01  4.8381777146583127e-01 1.2491594759524963e-01 1.2548710315431968e-01  4.8405231651835445e-01 1.2338414331919216e-01 1.2719079280403534e-01  4.8429134418288455e-01 1.2193833263546784e-01 1.2886582685857276e-01  4.8452635117032999e-01 1.2061396874812795e-01 1.3046161246656743e-01  4.8476113402409693e-01 1.1937759089960828e-01 1.3201032777979019e-01  4.8499116828990657e-01 1.1823207552734769e-01 1.3349367356097863e-01  4.8521668047110961e-01 1.1716969354009002e-01 1.3491647127042578e-01  4.8543409843935326e-01 1.1619472216611980e-01 1.3626297879739988e-01  4.8564254769634568e-01 1.1530177242773453e-01 1.3753262488061163e-01  4.8583959343113414e-01 1.1449154435223463e-01 1.3871568478180121e-01  4.8602343714239044e-01 1.1376319664954380e-01 1.3980559350800062e-01  4.8619477480627032e-01 1.1310682871105053e-01 1.4081011917657998e-01  4.8635215799675613e-01 1.1252101559179266e-01 1.4172438603668294e-01  4.8649254604012487e-01 1.1201181874647512e-01 1.4253329746968840e-01  4.8661453348505429e-01 1.1157992805612554e-01 1.4323095741235489e-01  4.8671743371097831e-01 1.1122280776555109e-01 1.4381588932688003e-01  4.8680376036181389e-01 1.1092773254171213e-01 1.4430439481513338e-01  4.8686982870638357e-01 1.1070472316020372e-01 1.4467690284055143e-01  4.8691718738516354e-01 1.1054619422556133e-01 1.4494327489395320e-01  4.8694398782042658e-01 1.1045745813259854e-01 1.4509353857108126e-01  4.8694989165470048e-01 1.1043645968779224e-01 1.4512739895945284e-01  4.8690804181958391e-01 1.1057698751963065e-01 1.4489174391388440e-01  4.8685805388962233e-01 1.1074442284461698e-01 1.4461054274356042e-01  4.8679101165182614e-01 1.1097138190070964e-01 1.4423222247531442e-01  4.8670442024437172e-01 1.1126847266066058e-01 1.4374161894966889e-01  4.8659990640581918e-01 1.1163252793650266e-01 1.4314683459257965e-01  4.8648123716889585e-01 1.1205391147868621e-01 1.4246753027000847e-01  4.8634690513190665e-01 1.1254123885411448e-01 1.4169350602797473e-01  4.8620798699558104e-01 1.1305643107955432e-01 1.4088750131231750e-01  4.8604238769685898e-01 1.1368921511890105e-01 1.3991740418678214e-01  4.8586955098714230e-01 1.1437098276909027e-01 1.3889426497232712e-01  4.8568754345237325e-01 1.1511432219050753e-01 1.3780398659398080e-01  4.8550030575283804e-01 1.1590584657747802e-01 1.3666894995184312e-01  4.8530408991105545e-01 1.1677054767529543e-01 1.3546153166207475e-01  4.8509895308560769e-01 1.1771552037102843e-01 1.3417827220229675e-01  4.8489181643749452e-01 1.1871670785429153e-01 1.3285828510223363e-01  4.8468229798273288e-01 1.1978110195688987e-01 1.3149641852215016e-01  4.8447200165542986e-01 1.2090969231313245e-01 1.3009811021961271e-01  4.8426183997208766e-01 1.2210574790358135e-01 1.2866496012090414e-01  4.8405227012233215e-01 1.2337796334142512e-01 1.2719389705915488e-01  4.8384546126063965e-01 1.2472062339760416e-01 1.2569598081060571e-01  4.8364414776619352e-01 1.2612585095840545e-01 1.2418549838509232e-01  4.8344923372481530e-01 1.2759800925273260e-01 1.2266317624547254e-01  4.8326136324796054e-01 1.2914204297201362e-01 1.2112844542569350e-01  4.8308206151587552e-01 1.3075799878419758e-01 1.1958659274068972e-01  4.8291242393807243e-01 1.3244756465849858e-01 1.1804037917199296e-01  4.8275395829526740e-01 1.3421024578601232e-01 1.1649519179356120e-01  4.8260764358194430e-01 1.3604871990948192e-01 1.1495270517888702e-01  4.8247480884160865e-01 1.3796247292115893e-01 1.1341754956212700e-01  4.8235651115492406e-01 1.3995295590833057e-01 1.1189223859378654e-01  4.8225414338749645e-01 1.4201650021150403e-01 1.1038327657962885e-01  4.8216826791864648e-01 1.4415643404950809e-01 1.0889024736132724e-01  4.8210015093182845e-01 1.4638075369813208e-01 1.0741264390173590e-01  4.8205030525196790e-01 1.4869281665824791e-01 1.0594975545057206e-01  4.8202026693242495e-01 1.5108906661042198e-01 1.0450830666908649e-01  4.8201082033799525e-01 1.5356933636223247e-01 1.0309044371476982e-01  4.8202281922772888e-01 1.5613396126971779e-01 1.0169825097019015e-01  4.8205709387721402e-01 1.5878693282293660e-01 1.0033157825336737e-01  4.8211474538486077e-01 1.6152707992890630e-01 9.8994193635811689e-02  4.8219753235296703e-01 1.6438722760561189e-01 9.7672781160091260e-02  4.8230507504631043e-01 1.6733535005872552e-01 9.6383234383294311e-02  4.8243861981168512e-01 1.7036799129021951e-01 9.5130899678023226e-02  4.8259952169297193e-01 1.7351875021635710e-01 9.3900410311320195e-02  4.8278960807099552e-01 1.7678434028542028e-01 9.2698997517593557e-02  4.8300944175307620e-01 1.8016621908013253e-01 9.1526533993933054e-02  4.8325744912774526e-01 1.8363334035052342e-01 9.0394412508118693e-02  4.8354070689757184e-01 1.8726071126896737e-01 8.9282597387976267e-02  4.8385629874439673e-01 1.9099821118545193e-01 8.8208749135306311e-02  4.8420455433113441e-01 1.9486194775013038e-01 8.7163229493031041e-02  4.8458962089568053e-01 1.9885076876286809e-01 8.6159980708966910e-02  4.8501217399705776e-01 2.0299678548660846e-01 8.5180727388389235e-02  4.8547448874235644e-01 2.0728978576763799e-01 8.4237992594092176e-02  4.8597637219249590e-01 2.1172714036368218e-01 8.3330797877371382e-02  4.8651967563993803e-01 2.1631540331606819e-01 8.2460078495483105e-02  4.8710538772083078e-01 2.2105813253697246e-01 8.1625341584415673e-02  4.8841750161525627e-01 2.3106806891624254e-01 8.0065764568527181e-02  4.8914388510764517e-01 2.3632437885870194e-01 7.9343211363851959e-02  4.8992118828003045e-01 2.4176152901325490e-01 7.8661970820650420e-02  4.9074956013098320e-01 2.4738079732443485e-01 7.8019141247879550e-02  4.9163143271728277e-01 2.5318636232811781e-01 7.7418302193517488e-02  4.9256888265192772e-01 2.5918646910491933e-01 7.6858728195696099e-02  4.9356297136020172e-01 2.6537897469470745e-01 7.6342873385745941e-02  4.9461536219242913e-01 2.7176914199758179e-01 7.5870165451663071e-02  4.9572759792303955e-01 2.7835770130436227e-01 7.5442641574883701e-02  4.9690091837342620e-01 2.8514620503955690e-01 7.5060272685005758e-02  4.9813647183763549e-01 2.9213036090934180e-01 7.4727022523104397e-02  4.9943329392031383e-01 2.9930591853114663e-01 7.4438547185714299e-02  5.0079227936894222e-01 3.0666532597393176e-01 7.4199971748555346e-02  5.0221763248823370e-01 3.1422656356151363e-01 7.4010220905639704e-02  5.0370139665655322e-01 3.2194369204006701e-01 7.3869329345099238e-02  5.0525571693617266e-01 3.2986819016028601e-01 7.3780088258522683e-02  5.0687581179108643e-01 3.3797161487140198e-01 7.3742007607494303e-02  5.0854950684547473e-01 3.4619249696391041e-01 7.3750838177574732e-02  5.1028797912579404e-01 3.5456910541455938e-01 7.3816768761957530e-02  5.1208315112331559e-01 3.6307107526771226e-01 7.3927477626013038e-02  5.1393896628582747e-01 3.7170037292344282e-01 7.4092583916664068e-02  5.1584786454656018e-01 3.8042190635630491e-01 7.4307322742572929e-02  5.1780983482229703e-01 3.8923174816395278e-01 7.4570680526723776e-02  5.1982165434503491e-01 3.9810853193866230e-01 7.4884341704553783e-02  5.2187266743816341e-01 4.0700454607742836e-01 7.5243699906934983e-02  5.2396165490479052e-01 4.1591044802510285e-01 7.5649254105519273e-02  5.2609192850946784e-01 4.2484022242441727e-01 7.6100361415940440e-02  5.2823805524959078e-01 4.3368448668932646e-01 7.6590130825573255e-02  5.3041545886712493e-01 4.4250559716786825e-01 7.7123580859667529e-02  5.3260498129055955e-01 4.5122957618286219e-01 7.7690988004435552e-02  5.3479963178905843e-01 4.5982881215653293e-01 7.8291782363531223e-02  5.3699447439432857e-01 4.6828627223165459e-01 7.8922980408281981e-02  5.3918068154522303e-01 4.7657308900913775e-01 7.9579944494669458e-02  5.4135519385348851e-01 4.8468122254063606e-01 8.0260864937563389e-02  5.4351548113100401e-01 4.9260659009781066e-01 8.0963363078690842e-02  5.4562537093979036e-01 5.0022546630242659e-01 8.1672694495948314e-02  5.4768854306430059e-01 5.0755936019272541e-01 8.2389342801473447e-02  5.4973077889870325e-01 5.1470834944589794e-01 8.3119498877551393e-02  5.5170135833594036e-01 5.2150364333214916e-01 8.3843480780418922e-02  5.5359610238835533e-01 5.2794165026021300e-01 8.4558464728558644e-02  5.5542726875102810e-01 5.3407719593615122e-01 8.5265199791161747e-02  5.5717384750428078e-01 5.3985079725212792e-01 8.5953197278444082e-02  5.5884286328654398e-01 5.4529602354703233e-01 8.6624934773261081e-02  5.6039675803076039e-01 5.5030443984282318e-01 8.7260092088595892e-02  5.6186689478140528e-01 5.5498730145161201e-01 8.7872525958604994e-02  5.6322452349178254e-01 5.5926468454919931e-01 8.8446680948628967e-02  5.6447869828989250e-01 5.6317656273549532e-01 8.8983339021257754e-02  5.6563183142377949e-01 5.6674048477317629e-01 8.9482484676913984e-02  5.6664596701559700e-01 5.6984747597096952e-01 8.9928077227125050e-02  5.6753884530925824e-01 5.7256190677172136e-01 9.0323850034447983e-02  5.6833642028442932e-01 5.7497138562337069e-01 9.0679810904063213e-02  5.6899976400659447e-01 5.7696347516467705e-01 9.0978234448584439e-02  5.6953172836870569e-01 5.7855336695169068e-01 9.1219308718687830e-02  5.6995339048621985e-01 5.7980896376483204e-01 9.1410695688236912e-02  5.7025827090858794e-01 5.8071467867313176e-01 9.1549456862260195e-02  5.7043770259203963e-01 5.8124655355615917e-01 9.1631326217311418e-02  5.5780678262744499e-01 5.4192271246205059e-01 8.6207554931901478e-02  4.8235327959155000e-01 1.6847546768288449e-01 9.5906152728259850e-02  5.3824142996311120e-01 4.7303683824200032e-01 7.9287907844800040e-02  4.8743096659511093e-01 2.2360877141689225e-01 8.1205458427395891e-02  5.7018200052678736e-01 5.8048763875343568e-01 9.1515553367535141e-02  4.8507079019030380e-01 1.1785543038930107e-01 1.3399673374825893e-01  5.1645112295153595e-01 3.8313701483360341e-01 7.4390039875852867e-02  4.9597590496072602e-01 2.7977428155130857e-01 7.5379524883659552e-02  4.8689707262790533e-01 1.1061747252272955e-01 1.4482807069504047e-01  4.8224068777701867e-01 1.4241900293338200e-01 1.1011248558736300e-01  5.4006737416328332e-01 4.7989322207251789e-01 7.9855483046799541e-02  4.8229598718176198e-01 1.4113987135515746e-01 1.1101851498067028e-01  4.8306023331831532e-01 1.3099277381876706e-01 1.1937824398263119e-01  5.2714287106384095e-01 4.2918839090113980e-01 7.6337097284319394e-02  4.8217930596715686e-01 1.6361436022907838e-01 9.8045291566467227e-02  5.4780853265623008e-01 5.0799189104079367e-01 8.2423418323652187e-02  4.8334494147424029e-01 1.2844469628956692e-01 1.2181683972009182e-01  4.8475747946516340e-01 1.1939733566964035e-01 1.3198597443160717e-01  5.5736479922042914e-01 5.4048731490556301e-01 8.6021502425122978e-02  5.1308664379917490e-01 3.6775252624186833e-01 7.4012943633198588e-02  4.8357367282816693e-01 1.8756920087243903e-01 8.9218498328955634e-02  5.0148369215596511e-01 3.1035289567153751e-01 7.4101600407754722e-02  5.6213870637290486e-01 5.5585406310274510e-01 8.7980617584466916e-02  4.8589494223581869e-01 1.1427262730180635e-01 1.3904353723465562e-01  4.8660196458652072e-01 2.1692677368090291e-01 8.2376769540665987e-02  4.9517465813198225e-01 2.7509817001632114e-01 7.5649110112517751e-02  5.6683443558549318e-01 5.7042473150296880e-01 9.0008753511399489e-02  5.6587270608507445e-01 5.6748023270160397e-01 8.9589573890054897e-02  4.8370664630710475e-01 1.8925045285350850e-01 8.8704906918041365e-02  4.8623034595325071e-01 1.1297688282797273e-01 1.4101541538235243e-01  5.0686559761560346e-01 3.3790163221112779e-01 7.3754482588618761e-02  5.2861538960507282e-01 4.3522326588715238e-01 7.6679017218352422e-02  4.8660115378399293e-01 1.1163138801808034e-01 1.4315224222647008e-01  4.8970928191045476e-01 2.4024266137790390e-01 7.8872124130530227e-02  4.9119479709871544e-01 2.5032952076253412e-01 7.7708057044596240e-02  5.6922316358439806e-01 5.7763325375260488e-01 9.1078307451247079e-02  4.8390832992486976e-01 1.2431777378967594e-01 1.2614844125219460e-01  4.8201550339924976e-01 1.5498885497041948e-01 1.0231336241855184e-01  5.6898966033251508e-01 5.7693194842314588e-01 9.0975251379871683e-02  5.5047108893412011e-01 5.1727515504612798e-01 8.3390165356994603e-02  4.8530328259896161e-01 2.0572084042706842e-01 8.4576583897083085e-02  4.8670687331860951e-01 1.1126316383925164e-01 1.4375388613609769e-01  5.0124032728415890e-01 3.0902642197117042e-01 7.4154519116675102e-02  5.5199925328614241e-01 5.2253008179467242e-01 8.3947371414203401e-02  5.1154033692642298e-01 3.6050086821097643e-01 7.3898981178226811e-02  4.8683830553631841e-01 1.1081452213448795e-01 1.4449738809640431e-01  4.8570193038049680e-01 1.1505813471158376e-01 1.3788879125404252e-01  4.9262767424072673e-01 2.5951322541199839e-01 7.6854386918059334e-02  4.8203018625034227e-01 1.5058200049396570e-01 1.0482648800486674e-01  5.6231785265142153e-01 5.5641097946813123e-01 8.8063566132449728e-02  5.3331238300244899e-01 4.5402305498743523e-01 7.7876479432270121e-02  5.2087881487449017e-01 4.0271253950741431e-01 7.5065616318879771e-02  4.8392332867015814e-01 1.2421056884616784e-01 1.2626234874712869e-01  5.0779067001047562e-01 3.4248328871229822e-01 7.3742057419751969e-02  4.8290616532227071e-01 1.7860654316329491e-01 9.2061561807634487e-02  5.2319512182805639e-01 4.1265740309585142e-01 7.5496888700036721e-02  5.3357474044