<?xml version="1.0"?>
<VTKFile type="UnstructuredGrid"  version="0.1"  >
<UnstructuredGrid>
<Piece  NumberOfPoints="4940" NumberOfCells="9650">
<Points>
<DataArray  type="Float64"  NumberOfComponents="3"  format="ascii">500 250 0  0 250 0  250 500 0  250 0 0  256.8885856082646 499.9050767557906 0  263.7719401218049 499.6203791065173 0  270.6448364229772 499.1461232471188 0  277.5020553257866 498.4826693209355 0  284.3383895508592 497.6305211460281 0  291.1486476865662 496.5903258312597 0  297.9276581259182 495.3628732847843 0  304.6702729675493 493.9490956196674 0  311.3713719748657 492.3500664368026 0  318.0258664141369 490.5670000199653 0  324.6287029687753 488.6012504015818 0  331.1748675330201 486.4543103455647 0  337.6593890460416 484.1278102064655 0  344.0773432429536 481.6235166997244 0  350.4238564271474 478.9433315480048 0  356.694109139292 476.0892900492477 0  362.88333985546 473.0635595140469 0  368.9868485575419 469.8684376402048 0  375.0000003153078 466.5063507640667 0  380.9182288257928 462.9798520074548 0  386.7370398729688 459.2916193419558 0  392.4520147244077 455.444453565817 0  398.0588135356345 451.4412761437442 0  403.5531785622926 447.285127045646 0  408.9309374414144 442.9791624087773 0  414.1880064015299 438.5266521049243 0  419.3203932989752 433.9309773069245 0  424.324200661095 429.1956279150535 0  429.1956286596235 424.3241998957182 0  433.9309780058756 419.3203925397119 0  438.5266527445345 414.1880056671062 0  442.9791630130591 408.9309367076756 0  447.2851276060475 403.5531778422888 0  451.4412766621026 398.0588128303826 0  455.4444540361634 392.4520140460735 0  459.2916197786263 386.7370392045948 0  462.9798524073514 380.9182281752347 0  466.5063511234856 374.9999996927758 0  469.8684379657123 368.9868479560565 0  473.0635598144817 362.8833392617846 0  476.0892903190255 356.6941085676214 0  478.9433317963513 350.4238558609745 0  481.6235169154735 344.0773427117675 0  484.12781039012 337.6593885555221 0  486.4543105028062 331.1748670749914 0  488.601250531677 324.6287025528375 0  490.5670001317469 318.0258660188321 0  492.3500665291326 311.3713716102628 0  493.949095695951 304.6702726271575 0  495.3628733416623 297.9276578347343 0  496.5903258712341 291.1486474470129 0  497.6305211749058 284.3383893426084 0  498.4826693388848 277.502055163614 0  499.1461232580606 270.6448362909296 0  499.6203791109319 263.7719400417897 0  499.9050767571306 256.8885855596534 0  499.9050767559877 243.1114143988867 0  499.6203791069493 236.2280598860241 0  499.1461232485393 229.3551635941651 0  498.4826693235677 222.4979446979962 0  497.6305211491849 215.6616104719064 0  496.5903258357701 208.8513523404629 0  495.3628732906988 202.0723419043604 0  493.9490956264813 195.3297270628552 0  492.3500664487791 188.6286280724281 0  490.5670000344809 181.9741336371959 0  488.6012504175981 175.3712970824318 0  486.4543103623226 168.8251325157939 0  484.1278102222298 162.3406109960628 0  481.6235167152198 155.9226567951971 0  478.9433315621651 149.5761436051346 0  476.0892900516498 143.3058908657982 0  473.063559513628 137.1166601437124 0  469.8684376406648 131.0131514433083 0  466.5063507675389 124.9999996907064 0  462.9798520124137 119.0817711822745 0  459.2916193464549 113.2629601339176 0  455.4444535642773 107.5479852733717 0  451.4412761528674 101.9411864767781 0  447.2851270583545 96.44682145403524 0  442.9791624165781 91.06906256805769 0  438.5266521117469 85.81199360630404 0  433.9309773156125 80.67960671046254 0  429.1956279150353 75.67579933888632 0  424.3241998888952 70.80437133373906 0  419.3203925223282 66.06902197812161 0  414.1880056411937 61.47334723289828 0  408.9309366751728 57.0208369601728 0  403.5531778009394 52.71487236176898 0  398.058812796452 48.55872331295853 0  392.4520140187753 44.55554594490843 0  386.7370391799677 40.70838020528396 0  380.9182281475119 37.02014757560744 0  374.9999996718656 33.49364886444181 0  368.9868479340393 30.13156202237255 0  362.8833392380029 26.93644017348339 0  356.6941085456942 23.91070967062674 0  350.4238558420009 21.0566681953261 0  344.0773426899492 18.37648307566465 0  337.6593885328982 15.87218960140942 0  331.1748670549786 13.54568949032341 0  324.6287025315056 11.39874946165088 0  318.0258660010876 9.432999863235466 0  311.3713716017894 7.649933468721599 0  304.6702726190621 6.050904302234756 0  297.9276578269805 4.637126656823085 0  291.148647441857 3.409674127905504 0  284.3383893425031 2.369478825079682 0  277.502055159398 1.517330660648639 0  270.6448362875833 0.853876741662134 0  263.7719400401456 0.3796208889774277 0  256.8885855592052 0.09492324285704967 0  243.1114143979462 0.09492324403817065 0  236.2280598850882 0.3796208931023841 0  229.3551635938215 0.8538767514891958 0  222.4979446968584 1.517330676558146 0  215.6616104703111 2.369478851036291 0  208.8513523382973 3.409674164591252 0  202.0723419066374 4.637126708856528 0  195.3297270659513 6.050904372824903 0  188.628628074828 7.649933550613184 0  181.9741336377093 9.432999965373938 0  175.3712970793675 11.39874958336037 0  168.8251325057572 13.54568964112298 0  162.340610986655 15.87218978129263 0  155.9226567874317 18.37648328793418 0  149.576143602509 21.05666843898663 0  143.3058908718157 23.91070994551046 0  137.1166601505524 26.93644048291054 0  131.0131514451933 30.13156235831508 0  124.9999996848412 33.49364923584736 0  119.0817711715717 37.0201479941652 0  113.2629601211624 40.70838066187849 0  107.5479852622251 44.55554644345162 0  101.9411864693332 48.55872385260452 0  96.44682143286516 52.71487295812284 0  91.06906254351222 57.02083760363669 0  85.81199358272519 61.4733479087879 0  80.67960667988106 66.06902271253972 0  75.67579930062769 70.80437212218331 0  70.80437129287643 75.67580015310926 0  66.06902193673014 80.67960752263491 0  61.47334718684866 85.81199441168215 0  57.02083692524275 91.0690633672404 0  52.71487232786438 96.44682224262129 0  48.55872328070024 101.941187247437 0  44.55554591578033 107.5479860232332 0  40.7083801742321 113.2629608675606 0  37.02014754791168 119.0817718975441 0  33.49364883372994 125.000000381329 0  30.13156199866361 131.0131521097709 0  26.9364401549829 137.1166607985551 0  23.91070965524918 143.3058914868915 0  21.05666818346614 149.576144185037 0  18.37648306853811 155.9226573275967 0  15.8721895918909 162.3406114925245 0  13.54568948170046 168.8251329701392 0  11.39874945301878 175.3712974960928 0  9.432999857087736 181.9741340206533 0  7.649933466342702 188.6286284076045 0  6.050904301250966 195.3297273853278 0  4.637126656808988 202.0723421730917 0  3.409674127767772 208.8513525589684 0  2.369478824521138 215.6616106615248 0  1.517330660909465 222.4979448382452 0  0.8538767414496533 229.355163714981 0  0.3796208887135322 236.2280599646376 0  0.09492324266324204 243.1114144478261 0  0.0949232442452228 256.8885856095658 0  0.3796208935834784 263.7719401236316 0  0.8538767530323526 270.6448364248016 0  1.517330679476544 277.5020553295092 0  2.369478854618649 284.3383895555228 0  3.409674170191892 291.1486476952655 0  4.6371267162381 297.9276581311522 0  6.050904381420935 304.6702729724059 0  7.649933562385399 311.3713719716595 0  9.43299997979841 318.0258664133013 0  11.3987495994252 324.6287029719946 0  13.54568965885832 331.174867545904 0  15.87218979367188 337.6593890464085 0  18.37648329843151 344.0773432384132 0  21.05666844777872 350.423856417535 0  23.91070995156048 356.6941091410045 0  26.93644048988043 362.8833398632205 0  30.13156235982007 368.9868485575877 0  33.49364924138357 375.0000003247478 0  37.0201480006036 380.9182288389023 0  40.70838066758398 386.7370398875706 0  44.55554644477201 392.4520147396792 0  48.55872386086904 398.0588135419111 0  52.71487295981296 403.5531785693063 0  57.02083760525949 408.9309374584583 0  61.47334790862246 414.1880064170849 0  66.06902271205095 419.320393319588 0  70.80437211216579 424.3242006890749 0  75.67580013809859 429.195628692521 0  80.6796075127923 433.930978054209 0  85.81199439754931 438.5266528008431 0  91.06906334717917 442.9791630582355 0  96.44682221438322 447.2851276501571 0  101.9411872243843 451.441276702356 0  107.5479859945825 455.4444540643537 0  113.2629608446994 459.2916198108319 0  119.0817718768376 462.9798524393601 0  125.0000003647644 466.5063511567065 0  131.0131521012763 469.8684379967393 0  137.1166607840049 473.0635598376539 0  143.3058914748804 476.0892903390826 0  149.5761441732679 478.9433318113714 0  155.9226573130112 481.6235169255377 0  162.3406114779862 484.1278104026658 0  168.8251329570439 486.4543105138039 0  175.3712974805475 488.601250542119 0  181.9741340135204 490.5670001408953 0  188.6286284005059 492.3500665318597 0  195.3297273788229 493.9490956972913 0  202.0723421640089 495.3628733414168 0  208.8513525529672 496.5903258712308 0  215.6616106544547 497.6305211744985 0  222.4979448327038 498.4826693384772 0  229.3551637102845 499.1461232581612 0  236.2280599621369 499.6203791111485 0  243.1114144470173 499.9050767573145 0  155.2373389820306 474.8197567317462 0  25.36256300907667 153.9152755065208 0  432.3709625126712 412.6214396304305 0  6.013151705810699 246.637913163471 0  246.6379131630491 493.986848294322 0  338.6995838441862 22.68244767887072 0  477.3175523131281 338.6995838660569 0  493.9868482700757 246.6379131399102 0  246.6201155078769 6.218451882810491 0  417.6179310263282 72.7156044707053 0  102.2232990934413 445.0100869616822 0  63.66330858966404 92.20354579482142 0  391.3105220491464 50.73522820883105 0  72.79295043967942 418.0702734974704 0  448.290574428537 108.25674339002 0  402.4604651193511 440.7462829841712 0  97.55317348421397 59.11376320116034 0  136.7376477664901 33.58246472647134 0  363.3288394375288 465.6947312928271 0  44.0678766556007 381.0860953771871 0  469.6905266180034 142.3890690100806 0  22.68244791668644 338.6995843487432 0  338.699584349159 477.317552078365 0  173.389488083762 18.6681884918202 0  483.4809734778481 179.7121987795732 0  13.50237455842738 306.4709525540879 0  305.9825168523021 487.24416992
[...]
<PointData  Vectors="f_12"> 
<DataArray  type="Float64"  Name="f_12"  NumberOfComponents="3" format="ascii">7.9915451547417948e-01 6.0842849042734948e-01 6.1817038228764221e-01  7.9830637302217200e-01 6.7131578519053170e-01 5.2630389730376070e-01  7.2085492485980551e-01 2.7575404260233155e-01 8.7590437534860044e-01  7.4988870828954213e-01 7.8894456551373138e-01 2.8597588080355940e-01  7.2089626784308924e-01 2.7585013489941990e-01 8.7590883118393148e-01  7.2111509194487611e-01 2.7636238600164187e-01 8.7592688517363460e-01  7.2144228264881005e-01 2.7712953504700560e-01 8.7595151400446503e-01  7.2192560477687073e-01 2.7826697018411717e-01 8.7597995704438214e-01  7.2253338166460634e-01 2.7970421410506036e-01 8.7600088771516860e-01  7.2326327077730557e-01 2.8144016329640481e-01 8.7600541484551364e-01  7.2410865366947896e-01 2.8346498662207176e-01 8.7598112790587002e-01  7.2505680952415574e-01 2.8575378672796925e-01 8.7591709907377668e-01  7.2610564405447398e-01 2.8830767141656333e-01 8.7580059325390291e-01  7.2725400700500731e-01 2.9113173518741470e-01 8.7561561887389416e-01  7.2852705594488076e-01 2.9429612621142853e-01 8.7534115434943904e-01  7.2980492504083516e-01 2.9750724871600809e-01 8.7499403985372215e-01  7.3125614635346248e-01 3.0120107656287592e-01 8.7450395210473708e-01  7.3271650121745191e-01 3.0496732894301487e-01 8.7391060212193727e-01  7.3425311360052059e-01 3.0898381816077963e-01 8.7317726270835549e-01  7.3584282049438932e-01 3.1319899054572065e-01 8.7229627663291742e-01  7.3747436697675117e-01 3.1759049898345487e-01 8.7126053245483981e-01  7.3918429564447397e-01 3.2226712907307165e-01 8.7002727827702020e-01  7.4093742959883324e-01 3.2713882349396550e-01 8.6860915932693961e-01  7.4269745472447024e-01 3.3211392868777867e-01 8.6701720192902243e-01  7.4449727434999391e-01 3.3728989092515155e-01 8.6521446354653220e-01  7.4634803715888931e-01 3.4271113492874311e-01 8.6316713862966676e-01  7.4824598843378953e-01 3.4837524058274549e-01 8.6086220177059392e-01  7.5013010303570704e-01 3.5410879516827726e-01 8.5835958344087904e-01  7.5203366267970861e-01 3.6001880297502958e-01 8.5560575012615070e-01  7.5398452853219666e-01 3.6620219821571820e-01 8.5254040051336699e-01  7.5592179207859334e-01 3.7247563846257237e-01 8.4924481445420719e-01  7.5787702223177922e-01 3.7895113091649674e-01 8.4564745116131701e-01  7.5983723897089450e-01 3.8559116034531360e-01 8.4176528757227820e-01  7.6178599834851990e-01 3.9235121421411517e-01 8.3761050258167757e-01  7.6375701954515107e-01 3.9936079581989337e-01 8.3309212523268572e-01  7.6571069600781949e-01 4.0648745755800325e-01 8.2829049076370798e-01  7.6763538714614010e-01 4.1369707491651869e-01 8.2321926109663046e-01  7.6956302204277138e-01 4.2112051262701378e-01 8.1777951256572390e-01  7.7148500573456624e-01 4.2874046319945464e-01 8.1197263235022221e-01  7.7336503715709359e-01 4.3642201792935398e-01 8.0589511905727851e-01  7.7520185687096754e-01 4.4416686492399649e-01 7.9954405815063390e-01  7.7701929358608945e-01 4.5208593132340030e-01 7.9282373983273791e-01  7.7880623606104993e-01 4.6014547778266013e-01 7.8575448877733112e-01  7.8053771323070575e-01 4.6824883191655048e-01 7.7841786442468941e-01  7.8222469351165469e-01 4.7645579374309827e-01 7.7075604660617292e-01  7.8385832805016142e-01 4.8473146033142250e-01 7.6280132711220783e-01  7.8543056243164933e-01 4.9305065859956315e-01 7.5457474988482431e-01  7.8693489440868969e-01 5.0138678490093547e-01 7.4610737523735771e-01  7.8838515540049248e-01 5.0983571198971112e-01 7.3729263981198989e-01  7.8975713835167294e-01 5.1825863213193701e-01 7.2828385565969533e-01  7.9105216082013097e-01 5.2668851046057275e-01 7.1904245198980066e-01  7.9226740482891689e-01 5.3510101696302115e-01 7.0960123360644323e-01  7.9339974077764663e-01 5.4349452590913805e-01 6.9996533419712836e-01  7.9444903124024091e-01 5.5187843473689990e-01 6.9012477136458616e-01  7.9540693102577631e-01 5.6019826252894578e-01 6.8014848241232040e-01  7.9627030055634529e-01 5.6843598420916841e-01 6.7006407622062325e-01  7.9704374724206206e-01 5.7663264109356449e-01 6.5982570408070707e-01  7.9772205424524611e-01 5.8474234926296842e-01 6.4949837885385531e-01  7.9830377812410169e-01 5.9274219799045058e-01 6.3911400228485726e-01  7.9878645398681114e-01 6.0056242913649349e-01 6.2878986821594418e-01  7.9944907347195415e-01 6.1608054839120063e-01 6.0769408491629706e-01  7.9963431882648517e-01 6.2359192196241953e-01 5.9722299187208783e-01  7.9971798707005559e-01 6.3093583400303765e-01 5.8680764044724743e-01  7.9970792007051350e-01 6.3817714741508491e-01 5.7636608125989042e-01  7.9959843805796860e-01 6.4522685011557879e-01 5.6603335240724129e-01  7.9939712064737900e-01 6.5212815400406898e-01 5.5575503444565744e-01  7.9909958312283969e-01 6.5885166225156055e-01 5.4557811660354061e-01  7.9871136837202228e-01 6.6540384069336778e-01 5.3550258176800269e-01  7.9823502814751357e-01 6.7177508909745431e-01 5.2555094744003927e-01  7.9767228151336378e-01 6.7795565032139427e-01 5.1574438715335580e-01  7.9702542627610362e-01 6.8396464131137080e-01 5.0606019661497936e-01  7.9630083160779086e-01 6.8975762191772716e-01 4.9657681127764225e-01  7.9549778234336543e-01 6.9538428252028039e-01 4.8722223083763733e-01  7.9462228132908352e-01 7.0081103424383384e-01 4.7805615325392509e-01  7.9367800371009189e-01 7.0604582972813401e-01 4.6907390302712104e-01  7.9266893308109410e-01 7.1108131369329808e-01 4.6029385118449062e-01  7.9159949626072512e-01 7.1592471142563086e-01 4.5171193682672645e-01  7.9047272082680697e-01 7.2057629329309858e-01 4.4333336228397785e-01  7.8929309771470135e-01 7.2503989594128204e-01 4.3515889009336756e-01  7.8806690254699785e-01 7.2931365117499147e-01 4.2719984710072584e-01  7.8679637854605977e-01 7.3340687997439169e-01 4.1944591374949119e-01  7.8549000220182619e-01 7.3729708849533049e-01 4.1194235288456543e-01  7.8414699702678325e-01 7.4101717605304607e-01 4.0463886662501425e-01  7.8278039081401285e-01 7.4454539185917401e-01 3.9758471847439697e-01  7.8138836862992311e-01 7.4790178038130228e-01 3.9074754674164835e-01  7.7997726449908900e-01 7.5108592002045571e-01 3.8413605526766309e-01  7.7855197605637194e-01 7.5410061153696539e-01 3.7775237120612781e-01  7.7711769595968438e-01 7.5694883737066720e-01 3.7159852195856918e-01  7.7568089734760359e-01 7.5963532414741719e-01 3.6567543480366765e-01  7.7424334538648021e-01 7.6216613286443058e-01 3.5997645813916668e-01  7.7281201171576352e-01 7.6454350660533443e-01 3.5450718618785448e-01  7.7139097716261329e-01 7.6677372590137571e-01 3.4926343088829498e-01  7.6998104588013938e-01 7.6886530362643057e-01 3.4423346986519138e-01  7.6859296293080515e-01 7.7081620281630170e-01 3.3943487746158851e-01  7.6723694045329616e-01 7.7262304873963128e-01 3.3488669075070421e-01  7.6589936450442897e-01 7.7431549321917414e-01 3.3052594557182224e-01  7.6459098175207618e-01 7.7588958487257176e-01 3.2637375081851544e-01  7.6333112635048206e-01 7.7733085486995235e-01 3.2247874441458368e-01  7.6210043814483208e-01 7.7867320426459818e-01 3.1876365326999700e-01  7.6090324470428317e-01 7.7992048500400757e-01 3.1522951348256445e-01  7.5977181336888799e-01 7.8104575625036199e-01 3.1196209340059472e-01  7.5868568256482105e-01 7.8207800061154509e-01 3.0889042953268259e-01  7.5765343094186077e-01 7.8301987144363450e-01 3.0602327278801361e-01  7.5667256935869220e-01 7.8387931630938268e-01 3.0334606784595608e-01  7.5575154575625658e-01 7.8465555970936107e-01 3.0087282928549686e-01  7.5489002832554242e-01 7.8535535014588220e-01 2.9859390213762493e-01  7.5409278555234693e-01 7.8598086010554469e-01 2.9651380299626501e-01  7.5336292756326972e-01 7.8653525442516226e-01 2.9463319712291292e-01  7.5269480208123019e-01 7.8702773986049679e-01 2.9293103830684114e-01  7.5209026343009822e-01 7.8746159341129340e-01 2.9140585278663383e-01  7.5155771832884666e-01 7.8783456131342444e-01 2.9007409735966344e-01  7.5110023144437521e-01 7.8814746247180589e-01 2.8893968629281047e-01  7.5071770907703839e-01 7.8840378138627820e-01 2.8799806902442254e-01  7.5039970716699189e-01 7.8861357773179042e-01 2.8721943966659669e-01  7.5015741203240704e-01 7.8877147178606233e-01 2.8662857757108212e-01  7.4998447696991566e-01 7.8888330146548702e-01 2.8620789466160873e-01  7.4988458144015413e-01 7.8894657654632117e-01 2.8596686234109064e-01  7.4986592801691054e-01 7.8896000879268824e-01 2.8591934904324923e-01  7.5001530141228001e-01 7.8886276266050059e-01 2.8628387365352426e-01  7.5019695805730002e-01 7.8874529944536098e-01 2.8672570534071151e-01  7.5044239598656015e-01 7.8858492378453082e-01 2.8732476797384177e-01  7.5076106602519321e-01 7.8837376855202168e-01 2.8810639821632122e-01  7.5114819026035984e-01 7.8811324127536120e-01 2.8906095923144032e-01  7.5159282179404208e-01 7.8780851632860094e-01 2.9016423580323397e-01  7.5210132717092193e-01 7.8745261784414677e-01 2.9143539955185155e-01  7.5263610872397646e-01 7.8707092878464369e-01 2.9278140614358872e-01  7.5327848962327404e-01 7.8659868210217143e-01 2.9441640809133135e-01  7.5396132278071715e-01 7.8608190775691711e-01 2.9617347323941345e-01  7.5469403339693475e-01 7.8551100565784260e-01 2.9808002973181308e-01  7.5546249624214212e-01 7.8489449695055225e-01 3.0010235211614950e-01  7.5628535170662436e-01 7.8421120199083061e-01 3.0229836175838759e-01  7.5716530180714536e-01 7.8345416552296310e-01 3.0468154694518429e-01  7.5807852018019195e-01 7.8263964899423255e-01 3.0719297144229224e-01  7.5902818124272464e-01 7.8176117472076390e-01 3.0984633872322592e-01  7.6001160681974911e-01 7.8081590529326372e-01 3.1264166580572378e-01  7.6102805016175468e-01 7.7979927810923122e-01 3.1558440140447741e-01  7.6208055494245586e-01 7.7870235526205001e-01 3.1869157804832415e-01  7.6316156744153807e-01 7.7752900205121167e-01 3.2194652994182876e-01  7.6426180342424266e-01 7.7628366835630613e-01 3.2532943904383227e-01  7.6538117179633613e-01 7.7496130720372836e-01 3.2884758430176647e-01  7.6651995264032380e-01 7.7355658498339652e-01 3.3250917792220880e-01  7.6767466919238736e-01 7.7206791939905539e-01 3.3631172668422377e-01  7.6884312438485491e-01 7.7049275751826740e-01 3.4025599465494427e-01  7.7002158529966902e-01 7.6883017545905685e-01 3.4433831566465201e-01  7.7120848923983831e-01 7.6707686726809821e-01 3.4856153977616050e-01  7.7240021346849330e-01 7.6523227213770806e-01 3.5292174171104806e-01  7.7359446246411068e-01 7.6329418951777950e-01 3.5741924451935059e-01  7.7478627860769944e-01 7.6126534087934983e-01 3.6204345757421108e-01  7.7597449332914359e-01 7.5914200977887092e-01 3.6679868270283494e-01  7.7716002479519397e-01 7.5691468981507348e-01 3.7170068069902618e-01  7.7834139609036723e-01 7.5458155463920995e-01 3.7675018758057605e-01  7.7951355722056370e-01 7.5214423967871524e-01 3.8193836776981305e-01  7.8067353917189997e-01 7.4960266925585817e-01 3.8726167273368262e-01  7.8181900225903744e-01 7.4695669634801454e-01 3.9271725390324208e-01  7.8294850247100334e-01 7.4420141791594374e-01 3.9831089171465378e-01  7.8405858224159120e-01 7.4133691084123199e-01 4.0403827908204781e-01  7.8515787455179054e-01 7.3833141252503021e-01 4.0995781878126530e-01  7.8623258826184139e-01 7.3521670166787756e-01 4.1600436883147096e-01  7.8727816847732868e-01 7.3199426574228865e-01 4.2216975297070558e-01  7.8830347981494675e-01 7.2863300819703902e-01 4.2851145350945918e-01  7.8930280555163113e-01 7.2513378753240965e-01 4.3502109035775988e-01  7.9027359883527548e-01 7.2149553191915805e-01 4.4169633926124596e-01  7.9120604257513261e-01 7.1774999576301002e-01 4.4847678548971148e-01  7.9211269627237135e-01 7.1381990773187209e-01 4.5549359051804850e-01  7.9298011726140516e-01 7.0975619118510058e-01 4.6265247796029818e-01  7.9380987707827710e-01 7.0554648077029225e-01 4.6997256787589109e-01  7.9459467594129718e-01 7.0118267397823131e-01 4.7745723074487895e-01  7.9534085157276380e-01 6.9664115736084309e-01 4.8514639417750899e-01  7.9604028124423287e-01 6.9192787430729830e-01 4.9302059160428530e-01  7.9668889294777046e-01 6.8704517878281757e-01 5.0106911034763513e-01  7.9728464566551027e-01 6.8198735271910416e-01 5.0929564208843570e-01  7.9782473730632941e-01 6.7675221794519791e-01 5.1769733582294519e-01  7.9872623876431459e-01 6.6567971589232677e-01 5.3510486185504524e-01  7.9907914398158730e-01 6.5985640173486748e-01 5.4407204136748910e-01  7.9936164400244214e-01 6.5382427381502994e-01 5.5322977928809025e-01  7.9957128971170088e-01 6.4758761607755044e-01 5.6256270760394245e-01  7.9970334969452517e-01 6.4113915107074337e-01 5.7207154324677900e-01  7.9975376969659784e-01 6.3447040200103844e-01 5.8175753963541543e-01  7.9971841581158187e-01 6.2758349731238094e-01 5.9160669954298295e-01  7.9959363305607511e-01 6.2047425605913986e-01 6.0161305055282943e-01  7.9937522181701692e-01 6.1314154916949026e-01 6.1176602260649582e-01  7.9905865185055025e-01 6.0558320553232292e-01 6.2205446240703621e-01  7.9863992900463499e-01 5.9780263175440529e-01 6.3246129165305875e-01  7.9811778146394907e-01 5.8980993946958149e-01 6.4295853125818303e-01  7.9748777551142125e-01 5.8161039890161359e-01 6.5352545158191233e-01  7.9674502803618386e-01 5.7318353072387607e-01 6.6417352077554215e-01  7.9589200020102779e-01 5.6458245100546578e-01 6.7482105577054641e-01  7.9491746686728837e-01 5.5574810149013998e-01 6.8552298773820586e-01  7.9382296428885546e-01 5.4671139903316246e-01 6.9622728133694933e-01  7.9261514160922641e-01 5.3754432153403675e-01 7.0682892804949693e-01  7.9128425826980719e-01 5.2819824030750895e-01 7.1737596831780770e-01  7.8983603046240691e-01 5.1871443416924579e-01 7.2779903024456261e-01  7.8826520005743683e-01 5.0908468827840214e-01 7.3809491436454855e-01  7.8657782566528001e-01 4.9935022413963853e-01 7.4820350612785547e-01  7.8477411030175659e-01 4.8951706739060363e-01 7.5810330884857047e-01  7.8285679389408247e-01 4.7960789833165057e-01 7.6775940797673625e-01  7.8083569057754576e-01 4.6967302541502370e-01 7.7710911347630596e-01  7.7871411797369261e-01 4.5972805310071507e-01 7.8612910932619828e-01  7.7649033109548460e-01 4.4975700572895122e-01 7.9482904957112999e-01  7.7419019462375183e-01 4.3987816670035612e-01 8.0309193323349415e-01  7.7180115175082065e-01 4.3002721899758828e-01 8.1097446391031425e-01  7.6934598061698534e-01 4.2028800601823274e-01 8.1840336016331516e-01  7.6683485334848001e-01 4.1068872603602818e-01 8.2536381661148861e-01  7.6427597656943957e-01 4.0124996711842853e-01 8.3184346083783534e-01  7.6168333288488976e-01 3.9200633303164206e-01 8.3782904261985824e-01  7.5906369555750530e-01 3.8296780776582756e-01 8.4332409222445792e-01  7.5642395108262028e-01 3.7414167622659933e-01 8.4833816680012775e-01  7.5380883169360824e-01 3.6565608200570809e-01 8.5281889184984694e-01  7.5121992600519960e-01 3.5749355064811489e-01 8.5680306101045789e-01  7.4863195632753610e-01 3.4955602412336245e-01 8.6035919584801057e-01  7.4610696560562006e-01 3.4201294867110343e-01 8.6343835912305067e-01  7.4365454244337370e-01 3.3486904858753153e-01 8.6607377076021153e-01  7.4126560003442787e-01 3.2807320876131901e-01 8.6831888771264010e-01  7.3896862129055851e-01 3.2168478091969682e-01 8.7018661535051722e-01  7.3675963181824966e-01 3.1567029422177834e-01 8.7172591773137520e-01  7.3468661717797079e-01 3.1013784577731618e-01 8.7294306608455752e-01  7.3271654158966038e-01 3.0497661322607250e-01 8.7390647620316775e-01  7.3088575559396896e-01 3.0026273907720963e-01 8.7463388101812456e-01  7.2918747534142314e-01 2.9595957329846606e-01 8.7516521487997867e-01  7.2762117747136501e-01 2.9204734549375444e-01 8.7553879391830836e-01  7.2623459795325762e-01 2.8862861970753972e-01 8.7577982571581658e-01  7.2500823521866564e-01 2.8564108937726057e-01 8.7591791727935264e-01  7.2391279481318094e-01 2.8299868842821374e-01 8.7598665594404823e-01  7.2299659025318508e-01 2.8080824210904259e-01 8.7600358389160782e-01  7.2225741818522649e-01 2.7905353647668008e-01 8.7599173480702985e-01  7.2167023403738995e-01 2.7766800380210110e-01 8.7596413188106181e-01  7.2124367286697089e-01 2.7666516185366863e-01 8.7593630380083431e-01  7.2098803276621015e-01 2.7606611372946027e-01 8.7591542502249020e-01  7.3809467822735408e-01 3.1929186932983777e-01 8.7082449807397799e-01  7.8662698736127223e-01 7.3401707677920169e-01 4.1830731384750003e-01  7.6309744826889692e-01 3.9699165809187786e-01 8.3464941260932457e-01  7.9808156514226369e-01 6.7394165336864964e-01 5.2215992191616190e-01  7.2128815500291887e-01 2.7677006364736517e-01 8.7593977070558970e-01  7.5729423953587505e-01 7.8333373272780560e-01 3.0504522339759249e-01  7.8628949061412334e-01 4.9776606871377993e-01 7.4981272065766702e-01  7.9932985061599671e-01 6.1246873133922886e-01 6.1267776321940792e-01  7.5004269379573008e-01 7.8884025376490241e-01 2.8635808158868303e-01  7.7500313461108239e-01 7.6084155857967595e-01 3.6297044378941740e-01  7.6060145450883399e-01 3.8824232990481461e-01 8.4015786170532625e-01  7.7427633123982409e-01 7.6213927023218153e-01 3.6005734533547940e-01  7.6784126346890391e-01 7.7182478515305830e-01 3.3690463215573291e-01  7.7535833392933162e-01 4.4484696715343441e-01 7.9898015328605076e-01  7.8482459147366068e-01 7.3916828146954083e-01 4.0828315442127527e-01  7.5125563416096430e-01 3.5758722411043298e-01 8.5676456870698225e-01  7.6599922634008843e-01 7.7420162452610919e-01 3.3083205905288121e-01  7.5867502361934480e-01 7.8208688348078548e-01 3.0886214634344222e-01  7.3873516103548076e-01 3.2102881512561976e-01 8.7037394188545170e-01  7.8898932816521616e-01 5.1346237298255215e-01 7.3344632445420366e-01  7.9211567603986732e-01 7.1363603770878803e-01 4.5578262949705373e-01  7.9713747405336499e-01 5.7749038901015937e-01 6.5876319420483864e-01  7.3229212458438686e-01 3.0386854926995521e-01 8.7409417840540826e-01  7.5384758546437058e-01 7.8616465762022991e-01 2.9588660374411146e-01  7.9728146590492655e-01 6.8168587493215749e-01 5.0974945137475036e-01  7.9949229524977872e-01 6.1676888376222161e-01 6.0676294529133612e-01  7.2586381843667203e-01 2.8771858945015205e-01 8.7583040617736008e-01  7.2724121823899535e-01 2.9110578168362922e-01 8.7561727114993593e-01  7.9257766555641440e-01 7.1166831904108496e-01 4.5929260704241148e-01  7.5254522478046570e-01 7.8713145340297919e-01 2.9255972370651012e-01  7.9398505408740294e-01 5.4809383058058991e-01 6.9459378987140152e-01  7.7410319046140574e-01 4.3950740104897734e-01 8.0339146453552912e-01  7.5113309410578266e-01 7.8811945442715614e-01 2.8902999918737649e-01  7.9923261181701677e-01 6.5608393116459340e-01 5.4978520774443773e-01  7.9964706467738556e-01 6.4431785746860593e-01 5.6740049460618214e-01  7.2258541268926602e-01 2.7982907882209962e-01 8.7600123941571517e-01  7.6284443078973818e-01 7.7786384716685764e-01 3.2100749838404147e-01  7.8130730750131072e-01 7.4814973617916203e-01 3.9026475166506497e-01  7.2295798693470281e-01 2.8071711074214800e-01 8.7600412011594653e-01  7.4765370161968481e-01 3.4660560319198519e-01 8.6160954053146199e-01  7.9578942026247013e-01 6.9366368701189995e-01 4.9013135874180447e-01  7.5074372662421429e-01 7.8838137245617268e-01 2.8807005000648528e-01  7.9734317919670750e-01 5.8010914359679111e-01 6.5541970580840958e-01  7.4582285354124611e-01 3.4116278876224260e-01 8.6377045267287778e-01  7.9048925539630066e-01 5.2296545158880892e-01 7.2315181090187775e-01  7.5025871618320616e-01 7.8870086366088288e-01 2.8688289964752683e-01  7.5463741181121102e-01 7.8555137690583132e-01 2.9793886791972796e-01  7.9972562368206013e-01 6.3483830004992636e-01 5.8120538660855747e-01  7.7924725987267773e-01 7.5264706774520318e-01 3.8084220524096579e-01  7.3206293388022881e-01 3.0328756939611173e-01 8.7418046985296938e-01  7.6885383137321928e-01 4.1836097993988558e-01 8.1983407516211682e-01  7.8181258802837739e-01 4.7441509024042006e-01 7.7269039980955201e-01  7.6274146101112217e-01 7.7798526002073143e-01 3.2068230276771065e-01  7.9316977790591947e-01 5.4166121113588261e-01 7.0210280406059777e-01  7.8982748261750113e-01 7.2318573568640010e-01 4.3860268848747652e-01  7.7980540834267686e-01 4.6478821041757912e-01 7.8157779526151794e-01  7.6822454007