<?xml version="1.0"?>
<VTKFile type="UnstructuredGrid"  version="0.1"  >
<UnstructuredGrid>
<Piece  NumberOfPoints="4940" NumberOfCells="9650">
<Points>
<DataArray  type="Float64"  NumberOfComponents="3"  format="ascii">500 250 0  0 250 0  250 500 0  250 0 0  256.8885856082646 499.9050767557906 0  263.7719401218049 499.6203791065173 0  270.6448364229772 499.1461232471188 0  277.5020553257866 498.4826693209355 0  284.3383895508592 497.6305211460281 0  291.1486476865662 496.5903258312597 0  297.9276581259182 495.3628732847843 0  304.6702729675493 493.9490956196674 0  311.3713719748657 492.3500664368026 0  318.0258664141369 490.5670000199653 0  324.6287029687753 488.6012504015818 0  331.1748675330201 486.4543103455647 0  337.6593890460416 484.1278102064655 0  344.0773432429536 481.6235166997244 0  350.4238564271474 478.9433315480048 0  356.694109139292 476.0892900492477 0  362.88333985546 473.0635595140469 0  368.9868485575419 469.8684376402048 0  375.0000003153078 466.5063507640667 0  380.9182288257928 462.9798520074548 0  386.7370398729688 459.2916193419558 0  392.4520147244077 455.444453565817 0  398.0588135356345 451.4412761437442 0  403.5531785622926 447.285127045646 0  408.9309374414144 442.9791624087773 0  414.1880064015299 438.5266521049243 0  419.3203932989752 433.9309773069245 0  424.324200661095 429.1956279150535 0  429.1956286596235 424.3241998957182 0  433.9309780058756 419.3203925397119 0  438.5266527445345 414.1880056671062 0  442.9791630130591 408.9309367076756 0  447.2851276060475 403.5531778422888 0  451.4412766621026 398.0588128303826 0  455.4444540361634 392.4520140460735 0  459.2916197786263 386.7370392045948 0  462.9798524073514 380.9182281752347 0  466.5063511234856 374.9999996927758 0  469.8684379657123 368.9868479560565 0  473.0635598144817 362.8833392617846 0  476.0892903190255 356.6941085676214 0  478.9433317963513 350.4238558609745 0  481.6235169154735 344.0773427117675 0  484.12781039012 337.6593885555221 0  486.4543105028062 331.1748670749914 0  488.601250531677 324.6287025528375 0  490.5670001317469 318.0258660188321 0  492.3500665291326 311.3713716102628 0  493.949095695951 304.6702726271575 0  495.3628733416623 297.9276578347343 0  496.5903258712341 291.1486474470129 0  497.6305211749058 284.3383893426084 0  498.4826693388848 277.502055163614 0  499.1461232580606 270.6448362909296 0  499.6203791109319 263.7719400417897 0  499.9050767571306 256.8885855596534 0  499.9050767559877 243.1114143988867 0  499.6203791069493 236.2280598860241 0  499.1461232485393 229.3551635941651 0  498.4826693235677 222.4979446979962 0  497.6305211491849 215.6616104719064 0  496.5903258357701 208.8513523404629 0  495.3628732906988 202.0723419043604 0  493.9490956264813 195.3297270628552 0  492.3500664487791 188.6286280724281 0  490.5670000344809 181.9741336371959 0  488.6012504175981 175.3712970824318 0  486.4543103623226 168.8251325157939 0  484.1278102222298 162.3406109960628 0  481.6235167152198 155.9226567951971 0  478.9433315621651 149.5761436051346 0  476.0892900516498 143.3058908657982 0  473.063559513628 137.1166601437124 0  469.8684376406648 131.0131514433083 0  466.5063507675389 124.9999996907064 0  462.9798520124137 119.0817711822745 0  459.2916193464549 113.2629601339176 0  455.4444535642773 107.5479852733717 0  451.4412761528674 101.9411864767781 0  447.2851270583545 96.44682145403524 0  442.9791624165781 91.06906256805769 0  438.5266521117469 85.81199360630404 0  433.9309773156125 80.67960671046254 0  429.1956279150353 75.67579933888632 0  424.3241998888952 70.80437133373906 0  419.3203925223282 66.06902197812161 0  414.1880056411937 61.47334723289828 0  408.9309366751728 57.0208369601728 0  403.5531778009394 52.71487236176898 0  398.058812796452 48.55872331295853 0  392.4520140187753 44.55554594490843 0  386.7370391799677 40.70838020528396 0  380.9182281475119 37.02014757560744 0  374.9999996718656 33.49364886444181 0  368.9868479340393 30.13156202237255 0  362.8833392380029 26.93644017348339 0  356.6941085456942 23.91070967062674 0  350.4238558420009 21.0566681953261 0  344.0773426899492 18.37648307566465 0  337.6593885328982 15.87218960140942 0  331.1748670549786 13.54568949032341 0  324.6287025315056 11.39874946165088 0  318.0258660010876 9.432999863235466 0  311.3713716017894 7.649933468721599 0  304.6702726190621 6.050904302234756 0  297.9276578269805 4.637126656823085 0  291.148647441857 3.409674127905504 0  284.3383893425031 2.369478825079682 0  277.502055159398 1.517330660648639 0  270.6448362875833 0.853876741662134 0  263.7719400401456 0.3796208889774277 0  256.8885855592052 0.09492324285704967 0  243.1114143979462 0.09492324403817065 0  236.2280598850882 0.3796208931023841 0  229.3551635938215 0.8538767514891958 0  222.4979446968584 1.517330676558146 0  215.6616104703111 2.369478851036291 0  208.8513523382973 3.409674164591252 0  202.0723419066374 4.637126708856528 0  195.3297270659513 6.050904372824903 0  188.628628074828 7.649933550613184 0  181.9741336377093 9.432999965373938 0  175.3712970793675 11.39874958336037 0  168.8251325057572 13.54568964112298 0  162.340610986655 15.87218978129263 0  155.9226567874317 18.37648328793418 0  149.576143602509 21.05666843898663 0  143.3058908718157 23.91070994551046 0  137.1166601505524 26.93644048291054 0  131.0131514451933 30.13156235831508 0  124.9999996848412 33.49364923584736 0  119.0817711715717 37.0201479941652 0  113.2629601211624 40.70838066187849 0  107.5479852622251 44.55554644345162 0  101.9411864693332 48.55872385260452 0  96.44682143286516 52.71487295812284 0  91.06906254351222 57.02083760363669 0  85.81199358272519 61.4733479087879 0  80.67960667988106 66.06902271253972 0  75.67579930062769 70.80437212218331 0  70.80437129287643 75.67580015310926 0  66.06902193673014 80.67960752263491 0  61.47334718684866 85.81199441168215 0  57.02083692524275 91.0690633672404 0  52.71487232786438 96.44682224262129 0  48.55872328070024 101.941187247437 0  44.55554591578033 107.5479860232332 0  40.7083801742321 113.2629608675606 0  37.02014754791168 119.0817718975441 0  33.49364883372994 125.000000381329 0  30.13156199866361 131.0131521097709 0  26.9364401549829 137.1166607985551 0  23.91070965524918 143.3058914868915 0  21.05666818346614 149.576144185037 0  18.37648306853811 155.9226573275967 0  15.8721895918909 162.3406114925245 0  13.54568948170046 168.8251329701392 0  11.39874945301878 175.3712974960928 0  9.432999857087736 181.9741340206533 0  7.649933466342702 188.6286284076045 0  6.050904301250966 195.3297273853278 0  4.637126656808988 202.0723421730917 0  3.409674127767772 208.8513525589684 0  2.369478824521138 215.6616106615248 0  1.517330660909465 222.4979448382452 0  0.8538767414496533 229.355163714981 0  0.3796208887135322 236.2280599646376 0  0.09492324266324204 243.1114144478261 0  0.0949232442452228 256.8885856095658 0  0.3796208935834784 263.7719401236316 0  0.8538767530323526 270.6448364248016 0  1.517330679476544 277.5020553295092 0  2.369478854618649 284.3383895555228 0  3.409674170191892 291.1486476952655 0  4.6371267162381 297.9276581311522 0  6.050904381420935 304.6702729724059 0  7.649933562385399 311.3713719716595 0  9.43299997979841 318.0258664133013 0  11.3987495994252 324.6287029719946 0  13.54568965885832 331.174867545904 0  15.87218979367188 337.6593890464085 0  18.37648329843151 344.0773432384132 0  21.05666844777872 350.423856417535 0  23.91070995156048 356.6941091410045 0  26.93644048988043 362.8833398632205 0  30.13156235982007 368.9868485575877 0  33.49364924138357 375.0000003247478 0  37.0201480006036 380.9182288389023 0  40.70838066758398 386.7370398875706 0  44.55554644477201 392.4520147396792 0  48.55872386086904 398.0588135419111 0  52.71487295981296 403.5531785693063 0  57.02083760525949 408.9309374584583 0  61.47334790862246 414.1880064170849 0  66.06902271205095 419.320393319588 0  70.80437211216579 424.3242006890749 0  75.67580013809859 429.195628692521 0  80.6796075127923 433.930978054209 0  85.81199439754931 438.5266528008431 0  91.06906334717917 442.9791630582355 0  96.44682221438322 447.2851276501571 0  101.9411872243843 451.441276702356 0  107.5479859945825 455.4444540643537 0  113.2629608446994 459.2916198108319 0  119.0817718768376 462.9798524393601 0  125.0000003647644 466.5063511567065 0  131.0131521012763 469.8684379967393 0  137.1166607840049 473.0635598376539 0  143.3058914748804 476.0892903390826 0  149.5761441732679 478.9433318113714 0  155.9226573130112 481.6235169255377 0  162.3406114779862 484.1278104026658 0  168.8251329570439 486.4543105138039 0  175.3712974805475 488.601250542119 0  181.9741340135204 490.5670001408953 0  188.6286284005059 492.3500665318597 0  195.3297273788229 493.9490956972913 0  202.0723421640089 495.3628733414168 0  208.8513525529672 496.5903258712308 0  215.6616106544547 497.6305211744985 0  222.4979448327038 498.4826693384772 0  229.3551637102845 499.1461232581612 0  236.2280599621369 499.6203791111485 0  243.1114144470173 499.9050767573145 0  155.2373389820306 474.8197567317462 0  25.36256300907667 153.9152755065208 0  432.3709625126712 412.6214396304305 0  6.013151705810699 246.637913163471 0  246.6379131630491 493.986848294322 0  338.6995838441862 22.68244767887072 0  477.3175523131281 338.6995838660569 0  493.9868482700757 246.6379131399102 0  246.6201155078769 6.218451882810491 0  417.6179310263282 72.7156044707053 0  102.2232990934413 445.0100869616822 0  63.66330858966404 92.20354579482142 0  391.3105220491464 50.73522820883105 0  72.79295043967942 418.0702734974704 0  448.290574428537 108.25674339002 0  402.4604651193511 440.7462829841712 0  97.55317348421397 59.11376320116034 0  136.7376477664901 33.58246472647134 0  363.3288394375288 465.6947312928271 0  44.0678766556007 381.0860953771871 0  469.6905266180034 142.3890690100806 0  22.68244791668644 338.6995843487432 0  338.699584349159 477.317552078365 0  173.389488083762 18.6681884918202 0  483.4809734778481 179.7121987795732 0  13.50237455842738 306.4709525540879 0  305.9825168523021 487.24416992
[...]
<PointData  Vectors="f_12"> 
<DataArray  type="Float64"  Name="f_12"  NumberOfComponents="3" format="ascii">5.0103167840369833e-01 8.7092645492183859e-02 2.1393266319654422e-01  5.1579868049153099e-01 7.9270051938477262e-02 2.8068885740832272e-01  4.8302973525121595e-01 1.8030244380693983e-01 9.1518351917680665e-02  6.1231678916544119e-01 1.1285111493360035e-01 6.7088137188675356e-01  4.8302883117547951e-01 1.8029010274528043e-01 9.1522298237275548e-02  4.8301633730469534e-01 1.8010754862013950e-01 9.1583640518915405e-02  4.8299560261235658e-01 1.7980233155332379e-01 9.1686696780183180e-02  4.8296484669992734e-01 1.7934321286669372e-01 9.1843099483586876e-02  4.8292587969610051e-01 1.7875307098773235e-01 9.2045868830385721e-02  4.8287942106837684e-01 1.7803510533411915e-01 9.2295516211101727e-02  4.8282635648185601e-01 1.7719473242990419e-01 9.2591808708508569e-02  4.8276798381814856e-01 1.7624219955882237e-01 9.2933200490843845e-02  4.8270512906527591e-01 1.7518094846510057e-01 9.3320379925879507e-02  4.8263875749202534e-01 1.7401252005745946e-01 9.3755577365162407e-02  4.8256891019321385e-01 1.7272354009197832e-01 9.4246298340820517e-02  4.8250088126733270e-01 1.7139709475812939e-01 9.4763519406800376e-02  4.8242988039305912e-01 1.6991879960955081e-01 9.5355286370675085e-02  4.8236250983669721e-01 1.6840297814539781e-01 9.5979499452326436e-02  4.8229753242840046e-01 1.6680719480467490e-01 9.6655791848148639e-02  4.8223668147602528e-01 1.6514884190810550e-01 9.7380184177097789e-02  4.8218141016841115e-01 1.6343635670146459e-01 9.8152893969849164e-02  4.8213228380312007e-01 1.6164594216368489e-01 9.8989168423844587e-02  4.8209096329904794e-01 1.5980661716511527e-01 9.9878481768635938e-02  4.8205927589516945e-01 1.5794186852909306e-01 1.0081396899573039e-01  4.8203766445451607e-01 1.5603181528539550e-01 1.0180841003312183e-01  4.8202786500848599e-01 1.5406880003593421e-01 1.0287224680212749e-01  4.8203075253667849e-01 1.5205955480551062e-01 1.0400486675273964e-01  4.8204808397697108e-01 1.5004566114628179e-01 1.0518943925537289e-01  4.8208111556399486e-01 1.4800350499668594e-01 1.0644381654791069e-01  4.8213123023538745e-01 1.4591672567815114e-01 1.0778225610823555e-01  4.8219966238316248e-01 1.4382827898588499e-01 1.0918564653732242e-01  4.8228819695313574e-01 1.4171447235274540e-01 1.1067384747535854e-01  4.8239796726133827e-01 1.3958817435197388e-01 1.1224432544685514e-01  4.8252986918842328e-01 1.3745958928352231e-01 1.1389520256119579e-01  4.8268751856793374e-01 1.3530455452832540e-01 1.1565341328880303e-01  4.8287081349927441e-01 1.3315397567094153e-01 1.1750234234256830e-01  4.8308038847710477e-01 1.3101413432432343e-01 1.1944167623226606e-01  4.8332065151140652e-01 1.2886108505516805e-01 1.2150147819518303e-01  4.8359365205810428e-01 1.2670217705449244e-01 1.2368632475987221e-01  4.8389769324149684e-01 1.2456507448909222e-01 1.2597598917315050e-01  4.8423496765756158e-01 1.2244813812935572e-01 1.2838068525340401e-01  4.8461052022460765e-01 1.2033357741144869e-01 1.3093017613535965e-01  4.8502479534490367e-01 1.1823171841600306e-01 1.3362217352333514e-01  4.8547841344922960e-01 1.1615886924382238e-01 1.3645166260191624e-01  4.8597467615819095e-01 1.1410564207388864e-01 1.3943811874735751e-01  4.8651453747307155e-01 1.1208109437720645e-01 1.4258208479026391e-01  4.8709909434322257e-01 1.1008899453087151e-01 1.4588794160879723e-01  4.8773022056543069e-01 1.0813546575568642e-01 1.4936137020423942e-01  4.8841506831248860e-01 1.0620606323350487e-01 1.5304066419111581e-01  4.8914707545542790e-01 1.0432500315453783e-01 1.5688960232607321e-01  4.8993398017323370e-01 1.0248576821506732e-01 1.6094434859158735e-01  4.9077220850214964e-01 1.0069528668150102e-01 1.6519041978347981e-01  4.9166869911381206e-01 9.8952200391516698e-02 1.6965788821568922e-01  4.9262332014845722e-01 9.7258584911505436e-02 1.7434892704006971e-01  4.9363547151287196e-01 9.5621863435037979e-02 1.7926006053323310e-01  4.9470703294880336e-01 9.4045800665971513e-02 1.8439940502769855e-01  4.9584212385390419e-01 9.2523417723426538e-02 1.8979134009449874e-01  4.9704084746248778e-01 9.1064692170688563e-02 1.9543279379569603e-01  4.9829849575374169e-01 8.9670102595896944e-02 2.0131002676067786e-01  4.9960747861478788e-01 8.8346686433846369e-02 2.0738436765354282e-01  5.0247435234451199e-01 8.5892779056825116e-02 2.2056261627495838e-01  5.0399818551655318e-01 8.4775868460760295e-02 2.2751700774146250e-01  5.0558773795531309e-01 8.3734416909565498e-02 2.3474073945725119e-01  5.0724782927347178e-01 8.2759782938516144e-02 2.4226418892004262e-01  5.0897369859339137e-01 8.1869843624734331e-02 2.5005295398539990e-01  5.1076431339499073e-01 8.1049593300080464e-02 2.5811916019851133e-01  5.1262568932616370e-01 8.0312872707787558e-02 2.6647673972698743e-01  5.1455185795958147e-01 7.9653033584666230e-02 2.7510821730034135e-01  5.1654365226711485e-01 7.9074643155917418e-02 2.8401295084877209e-01  5.1859890470923620e-01 7.8578631056414119e-02 2.9318100004084652e-01  5.2072007506081230e-01 7.8162373037205898e-02 3.0262577322230766e-01  5.2289547566826633e-01 7.7833043947255334e-02 3.1228804836115276e-01  5.2513779801538940e-01 7.7583892823386888e-02 3.2222726566800119e-01  5.2743435466097588e-01 7.7420040439083210e-02 3.3238247318476916e-01  5.2978550971855853e-01 7.7340271007361863e-02 3.4275296258499854e-01  5.3218694225311736e-01 7.7345920924633799e-02 3.5331496201688384e-01  5.3463666924554631e-01 7.7435577963380769e-02 3.6405750512092733e-01  5.3713278052450730e-01 7.7610089736803015e-02 3.7496689959053181e-01  5.3967210126403309e-01 7.7868900080364595e-02 3.8602484195798364e-01  5.4224801462722005e-01 7.8211341385573063e-02 3.9719715752074253e-01  5.4485996740811604e-01 7.8636087162039361e-02 4.0847769095613068e-01  5.4749334792130766e-01 7.9143723651053238e-02 4.1979467037473545e-01  5.5015682860252779e-01 7.9732300484103860e-02 4.3118271631836630e-01  5.5282908271510434e-01 8.0397036079574255e-02 4.4254514561138014e-01  5.5551733363488287e-01 8.1139344168529984e-02 4.5390701096906316e-01  5.5821259541850143e-01 8.1955884917615893e-02 4.6522553743644524e-01  5.6090806602414511e-01 8.2843215784315485e-02 4.7646825513938640e-01  5.6359690186409572e-01 8.3798309061985252e-02 4.8760202456068313e-01  5.6627180332755878e-01 8.4815908920531632e-02 4.9859462228768786e-01  5.6892946141857970e-01 8.5894097411349457e-02 5.0942869981083549e-01  5.7155988137832292e-01 8.7025797380226921e-02 5.2006302830404816e-01  5.7415771694943440e-01 8.8206489516166858e-02 5.3047492318899059e-01  5.7672076480785317e-01 8.9433163105982913e-02 5.4065493791869612e-01  5.7923503121157871e-01 9.0694941657889203e-02 5.5055027374844034e-01  5.8168350573258309e-01 9.1979917611599363e-02 5.6009634099717043e-01  5.8408654358156820e-01 9.3295536484171368e-02 5.6937498242853235e-01  5.8642905956317992e-01 9.4629141713428205e-02 5.7833322820895672e-01  5.8868085567486972e-01 9.5959518684544998e-02 5.8686034270541465e-01  5.9087074736802192e-01 9.7299325586939503e-02 5.9507100682360725e-01  5.9299357851190293e-01 9.8640280714787407e-02 6.0295422761249085e-01  5.9500047904148579e-01 9.9947729789009246e-02 6.1033338132348913e-01  5.9691821669067724e-01 1.0123340447731886e-01 6.1731781014344445e-01  5.9873827751877373e-01 1.0248566482514468e-01 6.2388495459454396e-01  6.0046316975002023e-01 1.0370198179389686e-01 6.3005260677802399e-01  6.0207989242040039e-01 1.0486822017745367e-01 6.3578266481565515e-01  6.0358871691788074e-01 1.0597966489304661e-01 6.4108546561133251e-01  6.0498327833897680e-01 1.0702676589797319e-01 6.4594766848793872e-01  6.0625921748592926e-01 1.0800158505361754e-01 6.5036305167465480e-01  6.0742389487903381e-01 1.0890549692505259e-01 6.5436541933852177e-01  6.0847522152260680e-01 1.0973305342039673e-01 6.5795483832694379e-01  6.0940195928407537e-01 1.1047149571244652e-01 6.6110091930256554e-01  6.1019866622871199e-01 1.1111342778809809e-01 6.6379130942481945e-01  6.1086604141540046e-01 1.1165604477722603e-01 6.6603519011180468e-01  6.1141869175612451e-01 1.1210874231588965e-01 6.6788653181970914e-01  6.1184216358896104e-01 1.1245780394643756e-01 6.6930065549482975e-01  6.1214527689002385e-01 1.1270871761220352e-01 6.7031070877406618e-01  6.1233441425168056e-01 1.1286585817955622e-01 6.7093990567006967e-01  6.1235613756050467e-01 1.1288368895275910e-01 6.7101238091168935e-01  6.1211522733277213e-01 1.1268390338647667e-01 6.7021062753936100e-01  6.1180764383526720e-01 1.1242937545322380e-01 6.6918553697316563e-01  6.1138865555733857e-01 1.1208429451939082e-01 6.6778583467367492e-01  6.1084513321326350e-01 1.1163918917472533e-01 6.6596504263659184e-01  6.1018509880282346e-01 1.1110271478897768e-01 6.6374561983292546e-01  6.0942279899781115e-01 1.1048860104036237e-01 6.6117124342893319e-01  6.0855046647245237e-01 1.0979301877351665e-01 6.5821069953904487e-01  6.0762029180884802e-01 1.0905939171053092e-01 6.5503745957555914e-01  6.0651939994230208e-01 1.0820249055508735e-01 6.5125936657075567e-01  6.0534077669741482e-01 1.0729861480301887e-01 6.4718737737335119e-01  6.0407334790931067e-01 1.0634167348580914e-01 6.4277901802893567e-01  6.0273763009312731e-01 1.0535012560548511e-01 6.3809925032126291e-01  6.0130576466110819e-01 1.0430673694789527e-01 6.3304458341401149e-01  5.9977546932021442e-01 1.0321362223790943e-01 6.2759973481128384e-01  5.9818029000238493e-01 1.0209831872144517e-01 6.2187763368714499e-01  5.9651717365018464e-01 1.0096143267492187e-01 6.1586211554907233e-01  5.9478964685297731e-01 9.9808575574673472e-02 6.0956072856934851e-01  5.9299882659844805e-01 9.8643386710275158e-02 6.0297276902423691e-01  5.9114001552188367e-01 9.7466418219682743e-02 5.9607504200575223e-01  5.8922646359142050e-01 9.6288500654674106e-02 5.8891293656031451e-01  5.8727077739911482e-01 9.5120125442988340e-02 5.8152970680496352e-01  5.8527324784157231e-01 9.3963702601452440e-02 5.7392375951560914e-01  5.8323410187755997e-01 9.2821436946759178e-02 5.6609349119159602e-01  5.8115834516054210e-01 9.1698345917033727e-02 5.5805584885400505e-01  5.7904963355598371e-01 9.0598227511178200e-02 5.4982343983229143e-01  5.7691332105842152e-01 8.9525682901046996e-02 5.4141602790403598e-01  5.7475191414203886e-01 8.8483473530550708e-02 5.3284289604332047e-01  5.7257084391197233e-01 8.7475578127163306e-02 5.2412557285403383e-01  5.7037343421555864e-01 8.6504693424028820e-02 5.1527776392259939e-01  5.6816720148258382e-01 8.5575294504582886e-02 5.0633041782246879e-01  5.6595364234701928e-01 8.4688204842810019e-02 4.9729184707298896e-01  5.6372868934308629e-01 8.3843268262831561e-02 4.8814619331694709e-01  5.6149782953622829e-01 8.3042981391134169e-02 4.7891807696332034e-01  5.5926624348136644e-01 8.2290312918258293e-02 4.6963054521264325e-01  5.5703847753616875e-01 8.1587002941693479e-02 4.6030529530144243e-01  5.5481802475984954e-01 8.0934716466185386e-02 4.5095922949326589e-01  5.5260509459980434e-01 8.0333421926438511e-02 4.4159679465022372e-01  5.5040391853374049e-01 7.9785120824969594e-02 4.3223796644587081e-01  5.4819933229482820e-01 7.9287043631859358e-02 4.2282080793588978e-01  5.4601415799966280e-01 7.8843730730210657e-02 4.1344658752609337e-01  5.4385242419409408e-01 7.8457832012827064e-02 4.0413385999515283e-01  5.4169936531799223e-01 7.8125140973077503e-02 3.9482437158609618e-01  5.3956149245281104e-01 7.7849147869617219e-02 3.8554671918313088e-01  5.3744074080412430e-01 7.7630060171681503e-02 3.7631316155949290e-01  5.3535386277076413e-01 7.7469546403555939e-02 3.6719923699414359e-01  5.3327302104189722e-01 7.7367414327214903e-02 3.5808561020474133e-01  5.3122129396201845e-01 7.7326571917384443e-02 3.4907389975620146e-01  5.2919496411468681e-01 7.7342718734320123e-02 3.4015598896328725e-01  5.2719845513172503e-01 7.7425108100387038e-02 3.3134361236710175e-01  5.2522095395996660e-01 7.7567132108284170e-02 3.2260031941850875e-01  5.2327263895583787e-01 7.7775137684661474e-02 3.1396591766610021e-01  5.2135528009129561e-01 7.8047745245511752e-02 3.0545304346217456e-01  5.1947010711449570e-01 7.8387110813634100e-02 2.9706674234315611e-01  5.1761911484546408e-01 7.8793097781508600e-02 2.8881786128008058e-01  5.1401183677801288e-01 7.9818536824705258e-02 2.7269434546666849e-01  5.1226462685279972e-01 8.0437355636295352e-02 2.6486247409427932e-01  5.1055486492909796e-01 8.1132012913863946e-02 2.5717983827494167e-01  5.0888475642220232e-01 8.1900903757546481e-02 2.4965877300385614e-01  5.0725599275279765e-01 8.2747384986126757e-02 2.4230357046378659e-01  5.0566835486458739e-01 8.3673073228201056e-02 2.3511290713874039e-01  5.0412502309555962e-01 8.4679453708396052e-02 2.2809843658645215e-01  5.0262639402997011e-01 8.5767804280365137e-02 2.2126082683868104e-01  5.0117455234419483e-01 8.6940190893627395e-02 2.1460616965877269e-01  4.9977015148518783e-01 8.8197368135894252e-02 2.0813599048744605e-01  4.9841673712128826e-01 8.9541561628030619e-02 2.0186109232970939e-01  4.9711364929268131e-01 9.0970577673399292e-02 1.9577935731408833e-01  4.9586525186430180e-01 9.2486110093855142e-02 1.8990430588315454e-01  4.9466783376505674e-01 9.4092694768579427e-02 1.8421653703624308e-01  4.9352780888996101e-01 9.5781216895368296e-02 1.7874407522364327e-01  4.9244056928064955e-01 9.7564723171186959e-02 1.7345861016369946e-01  4.9140768299135057e-01 9.9439159368599386e-02 1.6836559352773597e-01  4.9043401874127202e-01 1.0139107046381772e-01 1.6348933645422667e-01  4.8951933367448786e-01 1.0343261094127389e-01 1.5881722511875465e-01  4.8865939231575861e-01 1.0555391336011485e-01 1.5433659876175368e-01  4.8785776887204391e-01 1.0776110484561396e-01 1.5005357190063395e-01  4.8711371694982780e-01 1.1004364862839276e-01 1.4596810073415278e-01  4.8642557951444737e-01 1.1240240802392537e-01 1.4207003329770546e-01  4.8579433890058943e-01 1.1483285035327334e-01 1.3836220784437095e-01  4.8521871653299237e-01 1.1732631339873031e-01 1.3484150969945974e-01  4.8469869583605091e-01 1.1987627740651961e-01 1.3150820082536446e-01  4.8423008468059703e-01 1.2248860623473155e-01 1.2834056907951441e-01  4.8381500173016401e-01 1.2513572554194494e-01 1.2535892485633487e-01  4.8344956822738372e-01 1.2782993313050664e-01 1.2253949210026098e-01  4.8313194139423116e-01 1.3055268627144048e-01 1.1988343326121170e-01  4.8286058367952145e-01 1.3329582236120502e-01 1.1738740460865246e-01  4.8263295064311856e-01 1.3605094181839975e-01 1.1504483422942645e-01  4.8244641776498082e-01 1.3880764485234634e-01 1.1285030526867851e-01  4.8229818630529858e-01 1.4155981902937984e-01 1.1079558150741584e-01  4.8218551226947431e-01 1.4430279087038350e-01 1.0887216154654127e-01  4.8210576385100934e-01 1.4700367235155945e-01 1.0708782927483641e-01  4.8205586552817165e-01 1.4965703329086086e-01 1.0543383211564630e-01  4.8203245637036002e-01 1.5228372466022227e-01 1.0388602212686605e-01  4.8203254723907640e-01 1.5483727821016607e-01 1.0245922779802320e-01  4.8205324691112839e-01 1.5730842904861228e-01 1.0114818744043062e-01  4.8209134734182085e-01 1.5970418126212255e-01 9.9937591161713829e-02  4.8214348044543831e-01 1.6200378345678162e-01 9.8827198815493761e-02  4.8220760497036769e-01 1.6420697529435221e-01 9.7810190528079224e-02  4.8227925948961498e-01 1.6628147867399989e-01 9.6889295171845927e-02  4.8235756610864139e-01 1.6824554399398289e-01 9.6051536605059634e-02  4.8243879097095071e-01 1.7007468446175572e-01 9.5298001156065862e-02  4.8252113496446619e-01 1.7177254151531746e-01 9.4620768460843302e-02  4.8260280002831696e-01 1.7333849846453661e-01 9.4014339025419835e-02  4.8268051088820041e-01 1.7473575757308354e-01 9.3488691274679209e-02  4.8275296340412754e-01 1.7597726801508037e-01 9.3032284339596608e-02  4.8282018630186957e-01 1.7708370416180602e-01 9.2633860477439267e-02  4.8287906514969081e-01 1.7802011427682715e-01 9.2302865735181192e-02  4.8292861959994143e-01 1.7878660371238692e-01 9.2036195627918427e-02  4.8296910287555128e-01 1.7940085212581128e-01 9.1824843379643792e-02  4.8299955895123653e-01 1.7985605506999039e-01 9.1669635709290931e-02  4.8301912400050262e-01 1.8014546651085916e-01 9.1571566077009031e-02  4.8217009943362654e-01 1.6296582654400141e-01 9.8378640251894481e-02  5.4521984122300005e-01 7.8696550302187626e-02 4.1002843702238218e-01  4.8262624396008091e-01 1.3609862414992735e-01 1.1499402888914530e-01  5.1667580601530771e-01 7.9031550573830212e-02 2.8460654075389430e-01  4.8300776628685566e-01 1.7997688615974047e-01 9.1628840834925632e-02  5.9941854570266562e-01 1.0296258803726890e-01 6.2632349458949099e-01  4.8743552885698566e-01 1.0902669580040721e-01 1.4774929572384166e-01  5.0175492273758060e-01 8.6460298188395332e-02 2.1726671359811023e-01  6.1211645434633277e-01 1.1268536166147709e-01 6.7021462354959283e-01  5.6754624582824631e-01 8.5325531609474731e-02 5.0380027478358302e-01  4.8237862549882760e-01 1.3999308173354522e-01 1.1195121934039438e-01  5.6914220895504408e-01 8.5981116273143615e-02 5.1029175844857921e-01  5.8062149126034845e-01 9.1416387500446450e-02 5.5596635450305776e-01  4.8401277686193334e-01 1.2383261197921920e-01 1.2680174237237404e-01  5.4882199638998619e-01 7.9428670281569538e-02 4.2548247224523600e-01  4.8206402508565843e-01 1.4893011936790049e-01 1.0586742961025278e-01  5.8420311840048122e-01 9.3359930440365474e-02 5.6982242905461455e-01  5.9718039296582182e-01 1.0141206388681627e-01 6.1826692660223215e-01  4.8214739485725405e-01 1.6223350164872727e-01 9.8711482021224276e-02  4.8820963163732572e-01 1.0676849646686279e-01 1.5194444817866257e-01  5.3345860993534322e-01 7.7382998350497376e-02 3.5889523492063818e-01  4.9526527273885762e-01 9.3269218635155748e-02 1.8706142027462108e-01  4.8238659999873146e-01 1.6895432917589639e-01 9.5751194595296393e-02  6.0559254610440816e-01 1.0749043819442103e-01 6.4806064088021886e-01  5.1988901553230649e-01 7.8315123285898125e-02 2.9892691769054325e-01  5.0188315388006421e-01 8.6354526425328648e-02 2.1785705508562758e-01  4.8272705254697468e-01 1.7555218316101359e-01 9.3184811242553983e-02  4.8263034747446815e-01 1.7384138418528089e-01 9.3823893818677589e-02  5.3219233379970465e-01 7.7339699109187837e-02 3.5334134774631137e-01  6.0774078940976051e-01 1.0915429369631469e-01 6.5544949566280408e-01  4.9216679320682954e-01 9.8049602494070562e-02 1.7211299916991307e-01  4.8401987575913413e-01 1.2377414876790455e-01 1.2685979514592235e-01  6.1025716672333530e-01 1.1116145639273507e-01 6.6398835200354345e-01  5.1183117086151830e-01 8.0615691638894330e-02 2.6291138365021760e-01  5.0805204082622457e-01 8.2322480546852303e-02 2.4590017615464896e-01  4.8292963449986137e-01 1.7880764950577979e-01 9.2027655940367437e-02  5.8958066040026613e-01 9.6506081336427629e-02 5.9024183468841651e-01  5.5583368778489761e-01 8.1227712552331716e-02 4.5523990970600875e-01  4.8288992008179105e-01 1.7818744346561605e-01 9.2244828471759951e-02  4.8202947093141851e-01 1.5335464484906811e-01 1.0327742705996734e-01  5.2399418652085339e-01 7.7690848253828840e-02 3.1716490671165426e-01  6.1088109439769733e-01 1.1166877654590864e-01 6.6608573944935645e-01  4.9632929952193516e-01 9.1916407970554906e-02 1.9208855588827164e-01  4.8202995020468326e-01 1.5477078947787326e-01 1.0248706463119828e-01  4.8956035198989378e-01 1.0333862222546131e-01 1.5902800232880243e-01  6.1174780620577407e-01 1.1238047058623005e-01 6.6898560636175675e-01  6.0408102866257618e-01 1.0634757753789838e-01 6.4280609114141762e-01  5.0644542703080586e-01 8.3215205680333929e-02 2.3863037368292178e-01  5.5960902992274630e-01 8.2407899218676153e-02 4.7105895672279796e-01  4.8239069035662135e-01 1.6900761963396041e-01 9.5735327706345519e-02  4.8321799991638448e-01 1.2974377525944772e-01 1.2064159741704805e-01  4.8547907394981948e-01 1.1616093885278167e-01 1.3645293999372879e-01  5.9001322699927838e-01 9.6769558615064435e-02 5.9186415653826641e-01  4.9085725675114106e-01 1.0051830416464626e-01 1.6561865719519345e-01  5.3843552091050906e-01 7.7727484261807631e-02 3.8064714988049231e-01  4.8526807085440454e-01 1.1709645621099563e-01 1.3515169744799244e-01  4.8300043268