<?xml version="1.0"?>
<VTKFile type="UnstructuredGrid"  version="0.1"  >
<UnstructuredGrid>
<Piece  NumberOfPoints="645" NumberOfCells="1208">
<Points>
<DataArray  type="Float64"  NumberOfComponents="3"  format="ascii">500 250 0  0 250 0  250 500 0  250 0 0  269.6147739849193 499.2293334291141 0  289.1086163645346 496.9220851322369 0  308.3613411380662 493.0924800576239 0  327.2542488153708 487.7641290017751 0  345.6708583410312 480.9698830243682 0  363.4976252268579 472.7516308983252 0  380.6246415053586 463.1600408885224 0  396.9463134355418 452.2542483304208 0  412.3620124901979 440.1014910518401 0  426.7766957038264 426.7766948894474 0  440.1014917275007 412.3620116991009 0  452.2542488669409 396.9463126970852 0  463.1600413033558 380.6246408284121 0  472.751631216677 363.4976246020575 0  480.9698832532689 345.6708577884161 0  487.7641291438106 327.2542483782306 0  493.0924801408104 308.3613407915692 0  496.9220851690424 289.1086161321545 0  499.2293334387019 269.6147738630947 0  499.229333430357 230.3852260308728 0  496.9220851356368 210.8913836569316 0  493.0924800663345 191.6386588982162 0  487.7641290184218 172.7457512358624 0  480.9698830399936 154.3291416966919 0  472.7516309070343 136.5023747902346 0  463.1600408987175 119.3753585112783 0  452.2542483410546 103.0536865790945 0  440.1014910714183 87.63798753272525 0  426.7766948943133 73.22330430103958 0  412.3620117009348 59.89850827406559 0  396.9463126913573 47.74575112889752 0  380.6246408261736 36.83995869527249 0  363.4976245953484 27.24836877990464 0  345.6708577827026 19.03011674436451 0  327.2542483716913 12.23587085406467 0  308.361340780398 6.907519856507577 0  289.1086161262194 3.077914830017676 0  269.6147738583604 0.7706665609254912 0  230.3852260302092 0.7706665696952655 0  210.8913836535466 3.077914864899299 0  191.6386589008631 6.907519933030017 0  172.7457512318028 12.23587098289721 0  154.3291416990867 19.03011695901438 0  136.5023748091553 27.24836908332517 0  119.3753585100802 36.83995910201668 0  103.0536865836863 47.74575165560921 0  87.6379875279894 59.89850893262656 0  73.22330429312285 73.2233051136034 0  59.89850825318987 87.6379883235075 0  47.74575112052588 103.0536873201654 0  36.83995867902311 119.375359200343 0  27.24836876726107 136.502375429466 0  19.03011674184958 154.3291422233689 0  12.23587084468659 172.7457516571714 0  6.90751985664113 191.6386592190457 0  3.07791483051173 210.8913838706611 0  0.7706665612319625 230.3852261377458 0  0.770666570878916 269.6147739848303 0  3.077914868063033 289.1086163664283 0  6.907519941211973 308.3613411332171 0  12.23587099861078 327.2542488165586 0  19.03011697319531 345.6708583351491 0  27.24836908997781 363.4976252039013 0  36.83995910945072 380.624641502051 0  47.74575166272689 396.9463134261104 0  59.89850895284744 412.3620124956862 0  73.223305118437 426.7766957117107 0  87.63798832904175 440.1014917515369 0  103.0536873198473 452.2542488792431 0  119.3753591950333 463.1600413177231 0  136.502375416904 472.7516312263383 0  154.3291422204512 480.9698832569418 0  172.7457516527922 487.7641291538905 0  191.6386592093489 493.0924801410308 0  210.891383865478 496.9220851686673 0  230.38522613373 499.229333438452 0  408.0297414380137 79.04438812052823 0  470.6929872351991 328.8394125533284 0  327.5791944935511 30.66901791634585 0  186.8066927430735 474.0665667617239 0  241.1725543363619 17.80467707257488 0  481.8957906849985 237.8895419164845 0  241.9028711997863 481.7677876757489 0  22.04240264610397 260.0195362144032 0  66.93524317993541 393.9967576354165 0  407.5748062742585 421.804202868455 0  91.14498776833713 78.15950434153694 0  443.5721620986452 120.6592159456753 0  47.90357490700103 137.2584608638679 0  121.9854148726425 53.89110248018969 0  346.0986346915193 460.9657062005573 0  37.15978683308909 348.686261000426 0  443.2617512614241 379.6653657108164 0  469.6395010170255 166.6128966790255 0  169.4214360799271 31.58224567687904 0  120.0926710183088 443.0188983543295 0  25.93343325113663 186.8066927541892 0  294.4711068775667 479.0497777351075 0  25.93343346326644 313.1933076022177 0  379.5895462631086 444.9259942605202 0  477.3836837079734 202.381284598844 0  91.97025859159305 420.9556118868529 0  201.8099842058005 21.62718472283686 0  378.9340731306958 56.62233582097542 0  452.9866090845981 363.3843712213892 0  433.7891058935094 362.712636160478 0  423.9473865733744 379.4564211535431 0  414.2436151024774 362.5677032958672 0  424.001708291139 345.6669244533275 0  404.4610922180836 345.5134771956895 0  414.341417486195 328.5773255591307 0  394.7677429029752 328.480795053565 0  404.6609853910698 311.5262601202149 0  385.031291303632 311.4357195826571 0  375.101270673993 328.3607598117625 0  365.3740866097247 311.3257829175604 0  355.5083459394236 328.2997490723603 0  345.7718933714782 311.2546684470915 0  335.8786468089485 328.2092240351425 0  326.1421942370671 311.1641433897183 0  336.003344415795 294.1838138923774 0  316.3860344407723 294.1066032295112 0  306.5124951000444 311.0736183338123 0  296.7501789069282 294.0121813369556 0  306.6515351153541 277.0655652779993 0  287.0395899630898 276.98345703061 0  296.9328365330605 260.0289014374702 0  277.2982248613483 259.9358158720167 0  267.3990712864435 276.8845676964974 0  257.6713884944854 259.8456251093223 0  267.5666848269919 242.8932957192846 0  247.9365419809313 242.8056592582466 0  238.0437391039621 259.7573262582974 0  257.8302322568193 225.8482150584726 0  238.2005331082895 225.757689997251 0  248.0937796848919 208.8031343943687 0  267.7234788341136 208.8936594571897 0  228.4640805329348 208.712609333587 0  257.9870262635756 191.8485787959149 0  394.9245487736064 294.4811717944075 0  277.6167254091284 191.9391038586934 0  267.8802728403858 174.8940232011079 0  287.5005584344734 175.0117093161379 0  277.7685743892544 157.9663496219783 0  258.1421294336732 157.8702099927723 0  268.0370668499073 140.8943869520292 0  248.4073677066822 140.803861887803 0  297.4032185518097 158.029992671988 0  307.1396711152761 175.0750733211352 0  317.0329176840529 158.1205177336628 0  326.7693702482894 175.1655983760161 0  336.6626168121476 158.2110427905018 0  346.3990693731281 175.2561234311168 0  326.9054332650823 141.220514475552 0  258.300614283603 123.8493062912708 0  238.6709151364965 123.7587812267517 0  345.602770870788 345.2345146507195 0  228.7776685563935 140.7133368276114 0  219.0412159824577 123.6682561607107 0  209.1548086869 140.6568288028854 0  199.4115168211257 123.5777310947873 0  189.5182702336654 140.5322867083881 0  414.5061001206328 294.5791962676446 0  404.8178099709576 277.5266248278496 0  179.7818176563396 123.4872060318257 0  169.8885710669681 140.4417616462852 0  356.2923159345929 158.3015678516131 0  366.0287684987967 175.3466484913704 0  356.1355219340599 192.3012040743702 0  375.7652210728186 192.3917291327877 0  209.3047634085723 106.6231754828329 0  365.8719745031602 209.3462847214261 0  385.4473336989289 209.4589172776483 0  325.9854002589402 345.1637796339881 0  335.7218528424219 362.2088602706556 0  316.0921537106989 362.1183352318304 0  325.8286062932657 379.163415866528 0  306.198907162322 379.0728908286862 0  296.4624545814172 362.0278101960448 0  286.5692080329665 378.982365791018 0  276.8327554515532 361.9372851563691 0  266.939508902649 378.8918407521974 0  257.2030563201347 361.8467601163857 0  247.3098097697766 378.8013157143188 0  237.5733571858447 361.7562350760078 0  227.6801106339195 378.7107906764817 0  217.943658048477 361.6657100354885 0  208.0504114944145 378.6202656389371 0  198.313958909151 361.5751849900388 0  257.046262353733 395.8463963506437 0  188.4207123491114 378.5297405967377 0  178.6942702061005 361.4572585380363 0  188.5775063311286 344.5301043308571 0  168.9825719925815 344.3679587423489 0  178.862757141982 327.4597476508416 0  159.2319047656242 327.3721603214715 0  169.1046011625246 310.4399430048529 0  149.4749020045267 310.3494179549329 0  159.3681485763936 293.3948623397931 0  139.7621343179957 293.2923655078865 0  149.6316959897331 276.3497816754953 0  130.001996832586 276.2592566257254 0  139.8952434039481 259.3047010132285 0  120.2655442487169 259.2141759632096 0  130.1587908193085 242.2596203521963 0  110.5290916658602 242.1690953021686 0  120.4223382355493 225.2145396926986 0  139.5816554329651 327.3039735703393 0  140.0520373886098 225.3050647418833 0  100.6358450969261 259.1236509112424 0  217.7868640819771 395.665346280658 0  168.7910131993309 378.4392155450739 0  178.5274657798013 395.4842962032838 0  90.89939251396862 242.0785702520503 0  120.1087502632246 293.2138122376823 0  198.4827020443107 327.560288315778 0  130.3155848042933 208.2599840821261 0  110.6858856511 208.169459032866 0  120.5791322200218 191.2149034219518 0  179.6250236464644 157.4868423201703 0  248.5641617155314 106.8042256262046 0  268.1938608640521 106.8947506897054 0  218.5708339532014 225.6671649402842 0  296.3097884844733 395.9656221920631 0  160.1521184905691 123.396680968142 0  170.0453650783119 106.4421253476802 0  385.658427623638 175.451920499978 0  81.00614594559451 259.0331258609116 0  101.0554053508192 191.1247040573367 0  110.8426796353596 174.1698227613512 0  258.4574082944565 89.84967002797657 0  278.0871074405096 89.94019509160398 0  345.4583054269535 379.2539409100921 0  335.5650588729622 396.2084965020994 0  71.26969336281471 241.9880452024695 0  316.8761236845766 192.1201539629169 0  316.5489845965977 260.1172740927201 0  247.4666037372683 344.8016794754746 0  169.261395148653 276.4403067246208 0  424.4475090085939 277.6171671056567 0  477.5061263880716 295.9860753924438 0  297.7010004405789 21.78753761157149 0  152.5329738481066 461.4223243306178 0  158.8977666313233 395.3937711508539 0  18.80645331331318 222.6364406178562 0  91.05618649809102 208.0789339835232 0  67.55529962754241 105.2642692875928 0  268.3506548722531 72.89511443289081 0  248.7209557265558 72.80458936723331 0  414.7110714038412 260.5720779140291 0  375.5311866215619 226.3973061791794 0  385.1881
[...]
<PointData  Vectors="f_12"> 
<DataArray  type="Float64"  Name="f_12"  NumberOfComponents="3" format="ascii">0.0000000000000000e+00 3.7282583736754299e-01 9.3450373979254175e-01  0.0000000000000000e+00 6.4951582213761871e-01 6.0834887954729489e-01  0.0000000000000000e+00 1.5283297795598517e-02 2.6508867579592571e-01  0.0000000000000000e+00 8.9675807081090286e-01 1.9326577168441411e-01  0.0000000000000000e+00 1.5286066327009061e-02 2.6005076929089277e-01  0.0000000000000000e+00 1.5286434482371481e-02 2.6076034944329707e-01  0.0000000000000000e+00 1.5282958189707409e-02 2.6796367885787620e-01  0.0000000000000000e+00 1.5308270902068115e-02 2.8259713583745588e-01  0.0000000000000000e+00 1.5407428588779226e-02 3.0314757254041919e-01  0.0000000000000000e+00 1.5616302078565198e-02 3.2793468194898229e-01  0.0000000000000000e+00 1.5987483550858762e-02 3.5757744681510778e-01  0.0000000000000000e+00 1.6693146199937513e-02 3.9838981287006153e-01  0.0000000000000000e+00 1.7975866891975334e-02 4.5210866967744995e-01  0.0000000000000000e+00 2.0058930079883800e-02 5.1444943753610950e-01  0.0000000000000000e+00 2.3456189644343844e-02 5.8661320192657940e-01  0.0000000000000000e+00 2.9662471727551015e-02 6.7574001680729567e-01  0.0000000000000000e+00 4.0664478555496139e-02 7.7110637155699935e-01  0.0000000000000000e+00 5.8758675654195541e-02 8.6160402825059768e-01  0.0000000000000000e+00 8.7871705443284945e-02 9.3956280080050325e-01  0.0000000000000000e+00 1.2885181874393151e-01 9.9263235897794300e-01  0.0000000000000000e+00 1.8209832422476438e-01 1.0167802134124302e+00  0.0000000000000000e+00 2.4267876751353287e-01 1.0112508192007847e+00  0.0000000000000000e+00 3.1055010568403335e-01 9.8003848455114451e-01  0.0000000000000000e+00 4.4150580063088768e-01 8.7010035990632639e-01  0.0000000000000000e+00 5.0140836174209569e-01 8.0415279407710427e-01  0.0000000000000000e+00 5.6032492891533525e-01 7.3143877134646007e-01  0.0000000000000000e+00 6.1128719063856163e-01 6.6300110142567159e-01  0.0000000000000000e+00 6.5801745744491902e-01 5.9591323073374813e-01  0.0000000000000000e+00 6.9833521203499083e-01 5.3492474425554337e-01  0.0000000000000000e+00 7.3305783397181212e-01 4.8017686393600201e-01  0.0000000000000000e+00 7.6337670230259691e-01 4.3070584502632553e-01  0.0000000000000000e+00 7.9071649071208883e-01 3.8478311341603305e-01  0.0000000000000000e+00 8.1186044485564657e-01 3.4834929696710448e-01  0.0000000000000000e+00 8.2999060884951803e-01 3.1651967452468649e-01  0.0000000000000000e+00 8.4592362743014116e-01 2.8801512719615735e-01  0.0000000000000000e+00 8.5833196149973168e-01 2.6547907621807365e-01  0.0000000000000000e+00 8.6917398115404387e-01 2.4550326489202753e-01  0.0000000000000000e+00 8.7816612971666341e-01 2.2873761266380066e-01  0.0000000000000000e+00 8.8427968699647019e-01 2.1718934775963786e-01  0.0000000000000000e+00 8.8891188734238979e-01 2.0835920339766867e-01  0.0000000000000000e+00 8.9322438537143978e-01 2.0009686198336418e-01  0.0000000000000000e+00 8.9656300546955869e-01 1.9366435758671727e-01  0.0000000000000000e+00 8.9764881941073305e-01 1.9154697545113683e-01  0.0000000000000000e+00 8.9674528776188767e-01 1.9329524749237670e-01  0.0000000000000000e+00 8.9473159393322577e-01 1.9718089612341347e-01  0.0000000000000000e+00 8.9248725060137846e-01 2.0151239400498649e-01  0.0000000000000000e+00 8.8910796332591480e-01 2.0799415508120847e-01  0.0000000000000000e+00 8.8433054760791396e-01 2.1708351411451501e-01  0.0000000000000000e+00 8.7919271144920907e-01 2.2679910516797247e-01  0.0000000000000000e+00 8.7269761451399841e-01 2.3896256371696295e-01  0.0000000000000000e+00 8.6442073715990120e-01 2.5429534451773206e-01  0.0000000000000000e+00 8.5556888017141808e-01 2.7052664388436964e-01  0.0000000000000000e+00 8.4605564519591947e-01 2.8778832590044767e-01  0.0000000000000000e+00 8.3419756717335591e-01 3.0904590433829771e-01  0.0000000000000000e+00 8.2050286512671033e-01 3.3324511366237075e-01  0.0000000000000000e+00 8.0582287073736414e-01 3.5886245828590546e-01  0.0000000000000000e+00 7.8753875477759849e-01 3.9016389400891532e-01  0.0000000000000000e+00 7.6724953662537010e-01 4.2426238103245312e-01  0.0000000000000000e+00 7.4479559029670206e-01 4.6117416699794439e-01  0.0000000000000000e+00 7.1779379608170979e-01 5.0447570517346962e-01  0.0000000000000000e+00 6.8571714868947764e-01 5.5427730427668720e-01  0.0000000000000000e+00 6.1098257380332999e-01 6.6340549945857175e-01  0.0000000000000000e+00 5.6093350948207776e-01 7.3066282964211215e-01  0.0000000000000000e+00 5.0610135116918054e-01 7.9853686773328236e-01  0.0000000000000000e+00 4.4480708116133272e-01 8.6684813644896519e-01  0.0000000000000000e+00 3.7534094341351487e-01 9.3217030270457946e-01  0.0000000000000000e+00 3.0432263571349061e-01 9.8384465628519324e-01  0.0000000000000000e+00 2.3147906832869461e-01 1.0146904532059522e+00  0.0000000000000000e+00 1.6473176497758954e-01 1.0134770033157632e+00  0.0000000000000000e+00 1.0745811722010289e-01 9.7123024561131599e-01  0.0000000000000000e+00 6.6587910123881419e-02 8.8987383603858394e-01  0.0000000000000000e+00 4.2192779166109563e-02 7.8272616403428230e-01  0.0000000000000000e+00 2.8958890939138601e-02 6.6837540513479510e-01  0.0000000000000000e+00 2.2053810573033666e-02 5.6127210795462934e-01  0.0000000000000000e+00 1.8802456706506758e-02 4.7968138532935684e-01  0.0000000000000000e+00 1.6853917946408808e-02 4.0631993395459665e-01  0.0000000000000000e+00 1.5992160233880663e-02 3.5839703833734143e-01  0.0000000000000000e+00 1.5567260922965254e-02 3.2302292096512131e-01  0.0000000000000000e+00 1.5366710164048466e-02 2.9627749079547050e-01  0.0000000000000000e+00 1.5291132266646619e-02 2.7733342792134291e-01  0.0000000000000000e+00 8.1659465088646332e-01 3.4008195411883996e-01  0.0000000000000000e+00 1.1565826803580703e-01 9.7970722783315589e-01  0.0000000000000000e+00 8.7626803453704538e-01 2.3224104481509794e-01  0.0000000000000000e+00 1.5877033361311958e-02 3.4960422058819174e-01  0.0000000000000000e+00 8.9065397360090648e-01 2.0497164487483552e-01  0.0000000000000000e+00 4.2168806278408394e-01 8.8955601231472814e-01  0.0000000000000000e+00 1.5301384405976323e-02 2.8054164061234055e-01  0.0000000000000000e+00 6.1713001339238016e-01 6.5471445066781342e-01  0.0000000000000000e+00 1.3644595380024993e-01 9.9951107391129423e-01  0.0000000000000000e+00 1.9227887794331322e-02 4.9152862690064747e-01  0.0000000000000000e+00 8.5449906512519258e-01 2.7245496258340346e-01  0.0000000000000000e+00 7.4603265016660769e-01 4.5920248147755821e-01  0.0000000000000000e+00 8.0424485361740106e-01 3.6156733227435806e-01  0.0000000000000000e+00 8.7128761749644956e-01 2.4154976104370471e-01  0.0000000000000000e+00 1.5579191610372191e-02 3.2450498488641388e-01  0.0000000000000000e+00 3.3662005225055852e-01 9.6218751209377618e-01  0.0000000000000000e+00 3.5657969495084874e-02 7.3432741725196238e-01  0.0000000000000000e+00 6.4005803608352196e-01 6.2217361994560294e-01  0.0000000000000000e+00 8.8462084677077357e-01 2.1650443384936746e-01  0.0000000000000000e+00 2.6007579195194641e-02 6.2830481002546357e-01  0.0000000000000000e+00 7.4893997309425464e-01 4.5444755145855675e-01  0.0000000000000000e+00 1.5286695624109028e-02 2.7253811757571078e-01  0.0000000000000000e+00 4.7069527770840514e-01 8.3910907077722097e-01  0.0000000000000000e+00 1.6440809940916120e-02 3.8512408734628323e-01  0.0000000000000000e+00 5.3888944016444418e-01 7.5885677803355278e-01  0.0000000000000000e+00 5.4211939176157534e-02 8.4430647482888155e-01  0.0000000000000000e+00 8.8960880584428981e-01 2.0697519569876130e-01  0.0000000000000000e+00 8.4718571469418602e-01 2.8573580193660869e-01  0.0000000000000000e+00 5.0885449874461780e-02 8.2918154325213356e-01  0.0000000000000000e+00 4.9204331802168981e-02 8.2221159503384689e-01  0.0000000000000000e+00 3.3606391264220534e-02 7.1765568412112501e-01  0.0000000000000000e+00 5.1167123664104509e-02 8.3363687880572412e-01  0.0000000000000000e+00 8.0118790894035341e-02 9.2642199896599153e-01  0.0000000000000000e+00 9.2074325050195666e-02 9.5148192284102495e-01  0.0000000000000000e+00 1.3913448964801720e-01 1.0032109767487889e+00  0.0000000000000000e+00 1.6388902972705127e-01 1.0152272759268481e+00  0.0000000000000000e+00 2.2203257385722150e-01 1.0178496281990383e+00  0.0000000000000000e+00 2.4879395088502163e-01 1.0106749517600426e+00  0.0000000000000000e+00 1.8802228599167953e-01 1.0195670904569247e+00  0.0000000000000000e+00 2.7056499993527955e-01 1.0019939029418663e+00  0.0000000000000000e+00 2.0721390687633151e-01 1.0192979426806767e+00  0.0000000000000000e+00 2.8848372761116997e-01 9.9322603099326701e-01  0.0000000000000000e+00 2.2309488284577403e-01 1.0172435867271985e+00  0.0000000000000000e+00 3.0379778779654903e-01 9.8459092399102577e-01  0.0000000000000000e+00 3.6671985332508356e-01 9.3973429609375714e-01  0.0000000000000000e+00 3.8028129450291998e-01 9.2832450198194161e-01  0.0000000000000000e+00 3.1629069779557262e-01 9.7681741007896195e-01  0.0000000000000000e+00 3.9129778420204381e-01 9.1865372112186283e-01  0.0000000000000000e+00 4.5093816874860243e-01 8.6042521430513585e-01  0.0000000000000000e+00 4.5963757008922207e-01 8.5115759502449018e-01  0.0000000000000000e+00 5.1361336494610965e-01 7.8976366265653097e-01  0.0000000000000000e+00 5.2108023624120225e-01 7.8076107762756464e-01  0.0000000000000000e+00 4.6661703497337942e-01 8.4359220674461710e-01  0.0000000000000000e+00 5.2698385234809941e-01 7.7355738752358716e-01  0.0000000000000000e+00 5.7517684366841715e-01 7.1205052482659115e-01  0.0000000000000000e+00 5.7964120391504592e-01 7.0611737818225073e-01  0.0000000000000000e+00 5.3171491848881181e-01 7.6773128859934947e-01  0.0000000000000000e+00 6.2262470553791127e-01 6.4708847533162461e-01  0.0000000000000000e+00 6.2638404830637229e-01 6.4176208105678978e-01  0.0000000000000000e+00 6.6455515638400597e-01 5.8621800370243826e-01  0.0000000000000000e+00 6.6097486694151564e-01 5.9153958835384168e-01  0.0000000000000000e+00 6.6736570914349969e-01 5.8202475193843228e-01  0.0000000000000000e+00 6.9748822513450481e-01 5.3624098220792349e-01  0.0000000000000000e+00 3.0926175950190971e-01 9.8132923497224822e-01  0.0000000000000000e+00 6.9374080319161402e-01 5.4202081173039185e-01  0.0000000000000000e+00 7.2769678344795774e-01 4.8876889703126997e-01  0.0000000000000000e+00 7.2380224482375921e-01 4.9497773134398826e-01  0.0000000000000000e+00 7.5311424069724153e-01 4.4761732196797777e-01  0.0000000000000000e+00 7.5604036676916175e-01 4.4281074072872223e-01  0.0000000000000000e+00 7.7925847516256730e-01 4.0417078511724058e-01  0.0000000000000000e+00 7.8168825369525852e-01 4.0007405636185811e-01  0.0000000000000000e+00 7.4941820298415429e-01 4.5366834321356281e-01  0.0000000000000000e+00 7.1889177036977503e-01 5.0276908536284937e-01  0.0000000000000000e+00 7.4469244383492395e-01 4.6137237744060683e-01  0.0000000000000000e+00 7.1264317698657853e-01 5.1262339601060902e-01  0.0000000000000000e+00 7.3876909251683032e-01 4.7097692734466978e-01  0.0000000000000000e+00 7.0496817856887461e-01 5.2463527799940857e-01  0.0000000000000000e+00 7.6703692959186986e-01 4.2462325425205283e-01  0.0000000000000000e+00 8.0201383220397504e-01 3.6540207494274590e-01  0.0000000000000000e+00 8.0382072301588037e-01 3.6228479646300349e-01  0.0000000000000000e+00 1.4728930420822556e-01 1.0078971678006221e+00  0.0000000000000000e+00 7.8353700080313315e-01 3.9695014739616835e-01  0.0000000000000000e+00 8.0516765268492918e-01 3.5995743747826614e-01  0.0000000000000000e+00 7.8492309981320840e-01 3.9460385700973100e-01  0.0000000000000000e+00 8.0618418688951532e-01 3.5819864838542398e-01  0.0000000000000000e+00 7.8612217869028977e-01 3.9257132748976525e-01  0.0000000000000000e+00 2.8170726081366593e-01 9.9695047342458876e-01  0.0000000000000000e+00 3.6583367475170314e-01 9.4050366345615866e-01  0.0000000000000000e+00 8.0704327634846973e-01 3.5671072442585039e-01  0.0000000000000000e+00 7.8718116068815092e-01 3.9077425777387187e-01  0.0000000000000000e+00 7.3145613301763890e-01 4.8275312437329476e-01  0.0000000000000000e+00 6.9577665143569500e-01 5.3888809208719779e-01  0.0000000000000000e+00 6.6671000965176164e-01 5.8300937594905378e-01  0.0000000000000000e+00 6.5578142492448765e-01 5.9922481497018620e-01  0.0000000000000000e+00 8.2392903211351476e-01 3.2721388254085321e-01  0.0000000000000000e+00 6.2172001607384697e-01 6.4837271321758416e-01  0.0000000000000000e+00 6.0794394486132486e-01 6.6764773682382061e-01  0.0000000000000000e+00 1.6050472203149796e-01 1.0134576903665795e+00  0.0000000000000000e+00 9.3170535739141386e-02 9.5428621192167484e-01  0.0000000000000000e+00 1.0401374634104377e-01 9.6982315652403961e-01  0.0000000000000000e+00 5.3371449893264408e-02 8.4886555579599465e-01  0.0000000000000000e+00 6.0410042967272301e-02 8.7556720089408013e-01  0.0000000000000000e+00 1.1265133429318032e-01 9.8008170974057418e-01  0.0000000000000000e+00 6.6444139193344923e-02 8.9435331397800200e-01  0.0000000000000000e+00 1.1973703740608578e-01 9.8739644018488659e-01  0.0000000000000000e+00 7.1582459086928799e-02 9.0831707279222673e-01  0.0000000000000000e+00 1.2613442180357134e-01 9.9318440974333200e-01  0.0000000000000000e+00 7.6266766788817608e-02 9.1987985822077722e-01  0.0000000000000000e+00 1.3229594969643979e-01 9.9804573430976151e-01  0.0000000000000000e+00 8.0878139382705161e-02 9.3020647142503110e-01  0.0000000000000000e+00 1.3842034903640210e-01 1.0022862379240549e+00  0.0000000000000000e+00 8.5416528836571831e-02 9.3946567423176708e-01  0.0000000000000000e+00 1.4499722175193377e-01 1.0062370285998656e+00  0.0000000000000000e+00 3.9213140685543955e-02 7.7227086412790369e-01  0.0000000000000000e+00 9.0603873281599134e-02 9.4911881971557444e-01  0.0000000000000000e+00 1.5281059926721058e-01 1.0101401193618273e+00  0.0000000000000000e+00 2.1591363310718856e-01 1.0182816408506827e+00  0.0000000000000000e+00 2.2465934777897709e-01 1.0167751383497732e+00  0.0000000000000000e+00 2.9255886296855033e-01 9.9092617979424058e-01  0.0000000000000000e+00 3.0083451109912646e-01 9.8620033705863985e-01  0.0000000000000000e+00 3.6521869644047816e-01 9.4088448724822138e-01  0.0000000000000000e+00 3.7338724034349141e-01 9.3411781873461175e-01  0.0000000000000000e+00 4.3467141403058657e-01 8.7720502375973641e-01  0.0000000000000000e+00 4.4225550796225993e-01 8.6943265237432921e-01  0.0000000000000000e+00 4.9598956644976305e-01 8.1049724637473231e-01  0.0000000000000000e+00 5.0319003151988850e-01 8.0209009394633612e-01  0.0000000000000000e+00 5.5269232692656833e-01 7.4131562850368327e-01  0.0000000000000000e+00 5.5918994796529453e-01 7.3295055064096881e-01  0.0000000000000000e+00 6.0119798853049655e-01 6.7692797449429998e-01  0.0000000000000000e+00 6.0727180045234097e-01 6.6854792600630897e-01  0.0000000000000000e+00 6.4572770542779001e-01 6.1393292745804684e-01  0.0000000000000000e+00 3.1087477465862917e-01 9.8010985881279167e-01  0.0000000000000000e+00 6.4127068196588499e-01 6.2040640604165909e-01  0.0000000000000000e+00 5.6724784304500153e-01 7.2246240135083695e-01  0.0000000000000000e+00 4.4569801795120594e-02 8.0557309013886669e-01  0.0000000000000000e+00 9.7326613464507647e-02 9.6018255723216206e-01  0.0000000000000000e+00 5.1280993860031127e-02 8.3842427984527701e-01  0.0000000000000000e+00 6.1493656047480683e-01 6.5787699613286299e-01  0.0000000000000000e+00 4.5151078143725215e-01 8.5975838600796939e-01  0.0000000000000000e+00 2.8554072680573950e-01 9.9469594297344455e-01  0.0000000000000000e+00 6.7947498392743799e-01 5.6379734350754240e-01  0.0000000000000000e+00 6.8342706121560459e-01 5.5779502721570218e-01  0.0000000000000000e+00 7.1390046401063334e-01 5.1063886501098843e-01  0.0000000000000000e+00 7.6272674910832627e-01 4.3177428659155970e-01  0.0000000000000000e+00 8.2136888650801232e-01 3.3171842399472146e-01  0.0000000000000000e+00 8.1948122848255667e-01 3.3503256923461516e-01  0.0000000000000000e+00 6.2944346292388897e-01 6.3740735094981238e-01  0.0000000000000000e+00 3.3477064204565588e-02 7.2605187422046069e-01  0.0000000000000000e+00 8.0785577114914198e-01 3.5530235476499394e-01  0.0000000000000000e+00 8.2555609947160469e-01 3.2434470241595126e-01  0.0000000000000000e+00 6.8498254050039753e-01 5.5544282686919677e-01  0.0000000000000000e+00 5.7705685393649886e-01 7.0952322902842446e-01  0.0000000000000000e+00 7.1773419288496876e-01 5.0459032677195970e-01  0.0000000000000000e+00 7.4384223751104628e-01 4.6274854422755346e-01  0.0000000000000000e+00 8.3770046898062078e-01 3.0277582906064548e-01  0.0000000000000000e+00 8.3557470118163280e-01 3.0657104719481298e-01  0.0000000000000000e+00 4.6130804902119384e-02 8.1384713277548126e-01  0.0000000000000000e+00 2.8041298941387318e-02 6.6458236117975666e-01  0.0000000000000000e+00 6.2444216515800144e-01 6.4449400030570003e-01  0.0000000000000000e+00 6.8302187140783821e-01 5.5842295672977216e-01  0.0000000000000000e+00 5.0427565616538517e-01 8.0085147696186143e-01  0.0000000000000000e+00 1.9586971962699010e-01 1.0197024925653411e+00  0.0000000000000000e+00 4.9024514529815372e-01 8.1712393109622439e-01  0.0000000000000000e+00 3.3759518387379528e-01 9.6238978203091519e-01  0.0000000000000000e+00 2.1190432437739251e-01 1.0179143843706184e+00  0.0000000000000000e+00 8.8471423978128427e-01 2.1631628474933207e-01  0.0000000000000000e+00 1.8007226140115865e-02 4.5304377859266537e-01  0.0000000000000000e+00 5.6492162752011625e-02 8.5968139184031056e-01  0.0000000000000000e+00 6.9465517199617821e-01 5.4065648223026996e-01  0.0000000000000000e+00 6.8853230379871844e-01 5.5000378003963679e-01  0.0000000000000000e+00 8.3368249671089822e-01 3.0994211517713466e-01  0.0000000000000000e+00 8.5155988384603998e-01 2.7779725136817296e-01  0.0000000000000000e+00 8.5264428194229180e-01 2.7582377668168268e-01  0.0000000000000000e+00 4.1975468331733401e-01 8.9213443911807910e-01  0.0000000000000000e+00 5.7025659591188949e-01 7.1855750854914813e-01  0.0000000000000000e+00 3.8913839072290818e-01 9.2060115874130044e-01  0.0000000000000000e+00 8.1701717235314408e-01 3.3934892557756885e-01  0.0000000000000000e+00 8.3301389030369943e-01 3.1113326638147476e-01  0.0000000000000000e+00 1.0610798689615758e-01 9.7243354319033581e-01  0.0000000000000000e+00 6.7640072453996636e-01 5.6844860591597990e-01  0.0000000000000000e+00 6.6967123851794352e-01 5.7857392989385092e-01  0.0000000000000000e+00 6.3772257865947513e-01 6.2553394841672028e-01  0.0000000000000000e+00 8.2627836814303923e-01 3.2306816881667744e-01  0.0000000000000000e+00 8.4241141081924209e-01 2.9432937160491085e-01  0.0000000000000000e+00 8.0883516860855709e-01 3.5360322916047116e-01  0.0000000000000000e+00 7.4723326484881891e-01 4.5723030233058581e-01  0.0000000000000000e+00 7.7030473377138597e-01 4.1917488793088659e-01  0.0000000000000000e+00 2.6237354980291692e-02 6.3720544694491710e-01  0.0000000000000000e+00 3.3838426216331735e-02 7.2142020426964726e-01  0.0000000000000000e+00 1.9886456462332631e-02 5.1240104692793120e-01  0.0000000000000000e+00 6.4007616650145913e-02 8.8523642121322754e-01  0.0000000000000000e+00 1.1734461720465640e-01 9.8507982823495766e-01  0.0000000000000000e+00 3.0776046913379412e-02 6.9505668017202971e-01  0.0000000000000000e+00 3.9127966034738138e-01 9.1879520593622233e-01  0.0000000000000000e+00 4.6776237865567644e-01 8.4240610530138815e-01  0.0000000000000000e+00 4.4009241093259277e-01 8.7178642859618893e-01  0.0000000000000000e+00 5.1216165956570314e-01 7.9155285552107835e-01  0.0000000000000000e+00 5.6226329893890725e-01 7.2899514075118732e-01  0.0000000000000000e+00 5.8374049723571342e-01 7.0064397207883844e-01  0.0000000000000000e+00 3.2626563514104556e-01 9.7017571788508983e-01  0.0000000000000000e+00 7.4134203969007229e-01 4.6680671717005096e-01  0.0000000000000000e+00 7.6007440403774451e-01 4.3616081755583103e-01  0.0000000000000000e+00 8.2704596528166996e-01 3.2170994172328282e-01  0.0000000000000000e+00 2.5041572212988245e-01 1.0100588111369315e+00  0.0000000000