<?xml version="1.0"?>
<VTKFile type="UnstructuredGrid"  version="0.1"  >
<UnstructuredGrid>
<Piece  NumberOfPoints="645" NumberOfCells="1208">
<Points>
<DataArray  type="Float64"  NumberOfComponents="3"  format="ascii">500 250 0  0 250 0  250 500 0  250 0 0  269.6147739849193 499.2293334291141 0  289.1086163645346 496.9220851322369 0  308.3613411380662 493.0924800576239 0  327.2542488153708 487.7641290017751 0  345.6708583410312 480.9698830243682 0  363.4976252268579 472.7516308983252 0  380.6246415053586 463.1600408885224 0  396.9463134355418 452.2542483304208 0  412.3620124901979 440.1014910518401 0  426.7766957038264 426.7766948894474 0  440.1014917275007 412.3620116991009 0  452.2542488669409 396.9463126970852 0  463.1600413033558 380.6246408284121 0  472.751631216677 363.4976246020575 0  480.9698832532689 345.6708577884161 0  487.7641291438106 327.2542483782306 0  493.0924801408104 308.3613407915692 0  496.9220851690424 289.1086161321545 0  499.2293334387019 269.6147738630947 0  499.229333430357 230.3852260308728 0  496.9220851356368 210.8913836569316 0  493.0924800663345 191.6386588982162 0  487.7641290184218 172.7457512358624 0  480.9698830399936 154.3291416966919 0  472.7516309070343 136.5023747902346 0  463.1600408987175 119.3753585112783 0  452.2542483410546 103.0536865790945 0  440.1014910714183 87.63798753272525 0  426.7766948943133 73.22330430103958 0  412.3620117009348 59.89850827406559 0  396.9463126913573 47.74575112889752 0  380.6246408261736 36.83995869527249 0  363.4976245953484 27.24836877990464 0  345.6708577827026 19.03011674436451 0  327.2542483716913 12.23587085406467 0  308.361340780398 6.907519856507577 0  289.1086161262194 3.077914830017676 0  269.6147738583604 0.7706665609254912 0  230.3852260302092 0.7706665696952655 0  210.8913836535466 3.077914864899299 0  191.6386589008631 6.907519933030017 0  172.7457512318028 12.23587098289721 0  154.3291416990867 19.03011695901438 0  136.5023748091553 27.24836908332517 0  119.3753585100802 36.83995910201668 0  103.0536865836863 47.74575165560921 0  87.6379875279894 59.89850893262656 0  73.22330429312285 73.2233051136034 0  59.89850825318987 87.6379883235075 0  47.74575112052588 103.0536873201654 0  36.83995867902311 119.375359200343 0  27.24836876726107 136.502375429466 0  19.03011674184958 154.3291422233689 0  12.23587084468659 172.7457516571714 0  6.90751985664113 191.6386592190457 0  3.07791483051173 210.8913838706611 0  0.7706665612319625 230.3852261377458 0  0.770666570878916 269.6147739848303 0  3.077914868063033 289.1086163664283 0  6.907519941211973 308.3613411332171 0  12.23587099861078 327.2542488165586 0  19.03011697319531 345.6708583351491 0  27.24836908997781 363.4976252039013 0  36.83995910945072 380.624641502051 0  47.74575166272689 396.9463134261104 0  59.89850895284744 412.3620124956862 0  73.223305118437 426.7766957117107 0  87.63798832904175 440.1014917515369 0  103.0536873198473 452.2542488792431 0  119.3753591950333 463.1600413177231 0  136.502375416904 472.7516312263383 0  154.3291422204512 480.9698832569418 0  172.7457516527922 487.7641291538905 0  191.6386592093489 493.0924801410308 0  210.891383865478 496.9220851686673 0  230.38522613373 499.229333438452 0  408.0297414380137 79.04438812052823 0  470.6929872351991 328.8394125533284 0  327.5791944935511 30.66901791634585 0  186.8066927430735 474.0665667617239 0  241.1725543363619 17.80467707257488 0  481.8957906849985 237.8895419164845 0  241.9028711997863 481.7677876757489 0  22.04240264610397 260.0195362144032 0  66.93524317993541 393.9967576354165 0  407.5748062742585 421.804202868455 0  91.14498776833713 78.15950434153694 0  443.5721620986452 120.6592159456753 0  47.90357490700103 137.2584608638679 0  121.9854148726425 53.89110248018969 0  346.0986346915193 460.9657062005573 0  37.15978683308909 348.686261000426 0  443.2617512614241 379.6653657108164 0  469.6395010170255 166.6128966790255 0  169.4214360799271 31.58224567687904 0  120.0926710183088 443.0188983543295 0  25.93343325113663 186.8066927541892 0  294.4711068775667 479.0497777351075 0  25.93343346326644 313.1933076022177 0  379.5895462631086 444.9259942605202 0  477.3836837079734 202.381284598844 0  91.97025859159305 420.9556118868529 0  201.8099842058005 21.62718472283686 0  378.9340731306958 56.62233582097542 0  452.9866090845981 363.3843712213892 0  433.7891058935094 362.712636160478 0  423.9473865733744 379.4564211535431 0  414.2436151024774 362.5677032958672 0  424.001708291139 345.6669244533275 0  404.4610922180836 345.5134771956895 0  414.341417486195 328.5773255591307 0  394.7677429029752 328.480795053565 0  404.6609853910698 311.5262601202149 0  385.031291303632 311.4357195826571 0  375.101270673993 328.3607598117625 0  365.3740866097247 311.3257829175604 0  355.5083459394236 328.2997490723603 0  345.7718933714782 311.2546684470915 0  335.8786468089485 328.2092240351425 0  326.1421942370671 311.1641433897183 0  336.003344415795 294.1838138923774 0  316.3860344407723 294.1066032295112 0  306.5124951000444 311.0736183338123 0  296.7501789069282 294.0121813369556 0  306.6515351153541 277.0655652779993 0  287.0395899630898 276.98345703061 0  296.9328365330605 260.0289014374702 0  277.2982248613483 259.9358158720167 0  267.3990712864435 276.8845676964974 0  257.6713884944854 259.8456251093223 0  267.5666848269919 242.8932957192846 0  247.9365419809313 242.8056592582466 0  238.0437391039621 259.7573262582974 0  257.8302322568193 225.8482150584726 0  238.2005331082895 225.757689997251 0  248.0937796848919 208.8031343943687 0  267.7234788341136 208.8936594571897 0  228.4640805329348 208.712609333587 0  257.9870262635756 191.8485787959149 0  394.9245487736064 294.4811717944075 0  277.6167254091284 191.9391038586934 0  267.8802728403858 174.8940232011079 0  287.5005584344734 175.0117093161379 0  277.7685743892544 157.9663496219783 0  258.1421294336732 157.8702099927723 0  268.0370668499073 140.8943869520292 0  248.4073677066822 140.803861887803 0  297.4032185518097 158.029992671988 0  307.1396711152761 175.0750733211352 0  317.0329176840529 158.1205177336628 0  326.7693702482894 175.1655983760161 0  336.6626168121476 158.2110427905018 0  346.3990693731281 175.2561234311168 0  326.9054332650823 141.220514475552 0  258.300614283603 123.8493062912708 0  238.6709151364965 123.7587812267517 0  345.602770870788 345.2345146507195 0  228.7776685563935 140.7133368276114 0  219.0412159824577 123.6682561607107 0  209.1548086869 140.6568288028854 0  199.4115168211257 123.5777310947873 0  189.5182702336654 140.5322867083881 0  414.5061001206328 294.5791962676446 0  404.8178099709576 277.5266248278496 0  179.7818176563396 123.4872060318257 0  169.8885710669681 140.4417616462852 0  356.2923159345929 158.3015678516131 0  366.0287684987967 175.3466484913704 0  356.1355219340599 192.3012040743702 0  375.7652210728186 192.3917291327877 0  209.3047634085723 106.6231754828329 0  365.8719745031602 209.3462847214261 0  385.4473336989289 209.4589172776483 0  325.9854002589402 345.1637796339881 0  335.7218528424219 362.2088602706556 0  316.0921537106989 362.1183352318304 0  325.8286062932657 379.163415866528 0  306.198907162322 379.0728908286862 0  296.4624545814172 362.0278101960448 0  286.5692080329665 378.982365791018 0  276.8327554515532 361.9372851563691 0  266.939508902649 378.8918407521974 0  257.2030563201347 361.8467601163857 0  247.3098097697766 378.8013157143188 0  237.5733571858447 361.7562350760078 0  227.6801106339195 378.7107906764817 0  217.943658048477 361.6657100354885 0  208.0504114944145 378.6202656389371 0  198.313958909151 361.5751849900388 0  257.046262353733 395.8463963506437 0  188.4207123491114 378.5297405967377 0  178.6942702061005 361.4572585380363 0  188.5775063311286 344.5301043308571 0  168.9825719925815 344.3679587423489 0  178.862757141982 327.4597476508416 0  159.2319047656242 327.3721603214715 0  169.1046011625246 310.4399430048529 0  149.4749020045267 310.3494179549329 0  159.3681485763936 293.3948623397931 0  139.7621343179957 293.2923655078865 0  149.6316959897331 276.3497816754953 0  130.001996832586 276.2592566257254 0  139.8952434039481 259.3047010132285 0  120.2655442487169 259.2141759632096 0  130.1587908193085 242.2596203521963 0  110.5290916658602 242.1690953021686 0  120.4223382355493 225.2145396926986 0  139.5816554329651 327.3039735703393 0  140.0520373886098 225.3050647418833 0  100.6358450969261 259.1236509112424 0  217.7868640819771 395.665346280658 0  168.7910131993309 378.4392155450739 0  178.5274657798013 395.4842962032838 0  90.89939251396862 242.0785702520503 0  120.1087502632246 293.2138122376823 0  198.4827020443107 327.560288315778 0  130.3155848042933 208.2599840821261 0  110.6858856511 208.169459032866 0  120.5791322200218 191.2149034219518 0  179.6250236464644 157.4868423201703 0  248.5641617155314 106.8042256262046 0  268.1938608640521 106.8947506897054 0  218.5708339532014 225.6671649402842 0  296.3097884844733 395.9656221920631 0  160.1521184905691 123.396680968142 0  170.0453650783119 106.4421253476802 0  385.658427623638 175.451920499978 0  81.00614594559451 259.0331258609116 0  101.0554053508192 191.1247040573367 0  110.8426796353596 174.1698227613512 0  258.4574082944565 89.84967002797657 0  278.0871074405096 89.94019509160398 0  345.4583054269535 379.2539409100921 0  335.5650588729622 396.2084965020994 0  71.26969336281471 241.9880452024695 0  316.8761236845766 192.1201539629169 0  316.5489845965977 260.1172740927201 0  247.4666037372683 344.8016794754746 0  169.261395148653 276.4403067246208 0  424.4475090085939 277.6171671056567 0  477.5061263880716 295.9860753924438 0  297.7010004405789 21.78753761157149 0  152.5329738481066 461.4223243306178 0  158.8977666313233 395.3937711508539 0  18.80645331331318 222.6364406178562 0  91.05618649809102 208.0789339835232 0  67.55529962754241 105.2642692875928 0  268.3506548722531 72.89511443289081 0  248.7209557265558 72.80458936723331 0  414.7110714038412 260.5720779140291 0  375.5311866215619 226.3973061791794 0  385.1881
[...]
<PointData  Vectors="f_12"> 
<DataArray  type="Float64"  Name="f_12"  NumberOfComponents="3" format="ascii">0.0000000000000000e+00 3.6293647758444780e-01 9.4258880403673440e-01  0.0000000000000000e+00 6.4277005951189170e-01 6.1817321505774836e-01  0.0000000000000000e+00 1.5283613323581788e-02 2.6996407590024074e-01  0.0000000000000000e+00 8.9571397955955323e-01 1.9528957667703126e-01  0.0000000000000000e+00 1.5281981427837739e-02 2.6484904249814106e-01  0.0000000000000000e+00 1.5282806723467346e-02 2.6555284582168720e-01  0.0000000000000000e+00 1.5286440238757764e-02 2.7278301100159619e-01  0.0000000000000000e+00 1.5323950231024924e-02 2.8737069807486099e-01  0.0000000000000000e+00 1.5436420193423695e-02 3.0761335860441774e-01  0.0000000000000000e+00 1.5654990062878443e-02 3.3174193780006639e-01  0.0000000000000000e+00 1.6028238749944107e-02 3.6041721403764582e-01  0.0000000000000000e+00 1.6721902873503912e-02 3.9983982345505553e-01  0.0000000000000000e+00 1.7984963973795814e-02 4.5244693178572737e-01  0.0000000000000000e+00 2.0041441925459411e-02 5.1401390894095256e-01  0.0000000000000000e+00 2.3316235803936887e-02 5.8402802460412262e-01  0.0000000000000000e+00 2.9175342627202658e-02 6.7001075479205607e-01  0.0000000000000000e+00 3.9695064097352642e-02 7.6442054572000184e-01  0.0000000000000000e+00 5.6668084992025698e-02 8.5348166571615358e-01  0.0000000000000000e+00 8.4472133581754913e-02 9.3278276162195961e-01  0.0000000000000000e+00 1.2344607609747393e-01 9.8777523559926972e-01  0.0000000000000000e+00 1.7458043309033783e-01 1.0153292523892512e+00  0.0000000000000000e+00 2.3356987691633563e-01 1.0136798785356163e+00  0.0000000000000000e+00 3.0092788034769480e-01 9.8578527281533324e-01  0.0000000000000000e+00 4.3150464046406017e-01 8.8025597794358812e-01  0.0000000000000000e+00 4.9144991122310028e-01 8.1568434405980283e-01  0.0000000000000000e+00 5.5105428757727692e-01 7.4335494973288518e-01  0.0000000000000000e+00 6.0292800138501645e-01 6.7457269559624822e-01  0.0000000000000000e+00 6.5055154812764171e-01 6.0689476143415022e-01  0.0000000000000000e+00 6.9193919556873129e-01 5.4478619586524657e-01  0.0000000000000000e+00 7.2754055559208153e-01 4.8901422259775984e-01  0.0000000000000000e+00 7.5865826898418898e-01 4.3850665883922652e-01  0.0000000000000000e+00 7.8672994450133493e-01 3.9156262640593253e-01  0.0000000000000000e+00 8.0876135986698905e-01 3.5373535466211031e-01  0.0000000000000000e+00 8.2723609408737730e-01 3.2139628857920183e-01  0.0000000000000000e+00 8.4367005092213276e-01 2.9207573572026496e-01  0.0000000000000000e+00 8.5650315453394188e-01 2.6882338020547059e-01  0.0000000000000000e+00 8.6747848770200187e-01 2.4864420369746743e-01  0.0000000000000000e+00 8.7675672302649710e-01 2.3138384738968884e-01  0.0000000000000000e+00 8.8316419681376368e-01 2.1930646762546996e-01  0.0000000000000000e+00 8.8787541050620666e-01 2.1034122015368031e-01  0.0000000000000000e+00 8.9216180783452903e-01 2.0214279343141039e-01  0.0000000000000000e+00 8.9550082449037971e-01 1.9572190797060027e-01  0.0000000000000000e+00 8.9663185999460249e-01 1.9352182615491023e-01  0.0000000000000000e+00 8.9573006628673979e-01 1.9526309016985099e-01  0.0000000000000000e+00 8.9371300789349006e-01 1.9914762851893231e-01  0.0000000000000000e+00 8.9149335060283585e-01 2.0342416828926937e-01  0.0000000000000000e+00 8.8813033449923051e-01 2.0986453006733322e-01  0.0000000000000000e+00 8.8330321275110402e-01 2.1903356146577124e-01  0.0000000000000000e+00 8.7800184577829821e-01 2.2903965381045946e-01  0.0000000000000000e+00 8.7130063844685068e-01 2.4156379928316268e-01  0.0000000000000000e+00 8.6297947428092003e-01 2.5695026443603930e-01  0.0000000000000000e+00 8.5414531279736927e-01 2.7312313795926962e-01  0.0000000000000000e+00 8.4433340770648402e-01 2.9089414738380526e-01  0.0000000000000000e+00 8.3207562445752747e-01 3.1282004672285235e-01  0.0000000000000000e+00 8.1832141120882229e-01 3.3707004953587660e-01  0.0000000000000000e+00 8.0340185391177066e-01 3.6304859618551077e-01  0.0000000000000000e+00 7.8450248252310739e-01 3.9531135622511671e-01  0.0000000000000000e+00 7.6396049357318196e-01 4.2972527585659964e-01  0.0000000000000000e+00 7.4083260745313673e-01 4.6760571904553205e-01  0.0000000000000000e+00 7.1290518110235224e-01 5.1217861767334716e-01  0.0000000000000000e+00 6.8024260552855187e-01 5.6260435029343070e-01  0.0000000000000000e+00 6.0298890030957675e-01 6.7447516990112333e-01  0.0000000000000000e+00 5.5157235089510970e-01 7.4271004291756071e-01  0.0000000000000000e+00 4.9535085857873790e-01 8.1109879454136347e-01  0.0000000000000000e+00 4.3254462554885192e-01 8.7941255311553990e-01  0.0000000000000000e+00 3.6222733135817614e-01 9.4295692709216916e-01  0.0000000000000000e+00 2.9075149456385851e-01 9.9152739761271724e-01  0.0000000000000000e+00 2.1895138978985312e-01 1.0170382297651543e+00  0.0000000000000000e+00 1.5363410811074441e-01 1.0091505231812612e+00  0.0000000000000000e+00 9.9881072504236112e-02 9.6069603259841796e-01  0.0000000000000000e+00 6.1892016089390038e-02 8.7452748442217454e-01  0.0000000000000000e+00 3.9954315029680339e-02 7.6775504545576900e-01  0.0000000000000000e+00 2.7963359180862030e-02 6.5592572813695449e-01  0.0000000000000000e+00 2.1713859251908128e-02 5.5394706848555475e-01  0.0000000000000000e+00 1.8658262357632877e-02 4.7519702602292879e-01  0.0000000000000000e+00 1.6844768596153994e-02 4.0588606226436535e-01  0.0000000000000000e+00 1.6017982862733107e-02 3.6013852498351195e-01  0.0000000000000000e+00 1.5600945259849215e-02 3.2656245196176981e-01  0.0000000000000000e+00 1.5392505832840860e-02 3.0095817630535809e-01  0.0000000000000000e+00 1.5303543530430013e-02 2.8219121384746959e-01  0.0000000000000000e+00 8.1363267492834523e-01 3.4525397898154642e-01  0.0000000000000000e+00 1.1021759587781675e-01 9.7330616139833714e-01  0.0000000000000000e+00 8.7482982829036027e-01 2.3493319759338985e-01  0.0000000000000000e+00 1.5889368262882942e-02 3.5059325648284867e-01  0.0000000000000000e+00 8.8957521933628692e-01 2.0704099112884078e-01  0.0000000000000000e+00 4.1036216878618709e-01 9.0042496370371627e-01  0.0000000000000000e+00 1.5312017249870745e-02 2.8406080603005179e-01  0.0000000000000000e+00 6.0953600479763381e-01 6.6531289104035884e-01  0.0000000000000000e+00 1.2595645171051553e-01 9.9118773869681376e-01  0.0000000000000000e+00 1.9158204899559099e-02 4.8956534655259470e-01  0.0000000000000000e+00 8.5289836282076137e-01 2.7536940447632857e-01  0.0000000000000000e+00 7.4090970726946037e-01 4.6752482476689372e-01  0.0000000000000000e+00 8.0171490187666961e-01 3.6593362996766954e-01  0.0000000000000000e+00 8.6984607338641429e-01 2.4422918272829078e-01  0.0000000000000000e+00 1.5604190327614306e-02 3.2699292359895438e-01  0.0000000000000000e+00 3.2297119339349556e-01 9.7161244822127402e-01  0.0000000000000000e+00 3.4654378288258909e-02 7.2559968166354893e-01  0.0000000000000000e+00 6.3182025406725151e-01 6.3401678728756827e-01  0.0000000000000000e+00 8.8345801323279050e-01 2.1871142981040179e-01  0.0000000000000000e+00 2.5190194757700214e-02 6.1590703889372711e-01  0.0000000000000000e+00 7.4515366832222829e-01 4.6062178270830545e-01  0.0000000000000000e+00 1.5292167116376792e-02 2.7618530603841407e-01  0.0000000000000000e+00 4.5917800785692642e-01 8.5164891719313973e-01  0.0000000000000000e+00 1.6452109804004744e-02 3.8578140497266161e-01  0.0000000000000000e+00 5.2828940320753248e-01 7.7199377626750210e-01  0.0000000000000000e+00 5.0366895500671041e-02 8.2687778490461250e-01  0.0000000000000000e+00 8.8853877881376186e-01 2.0902369902588397e-01  0.0000000000000000e+00 8.4505127065778873e-01 2.8958902475987891e-01  0.0000000000000000e+00 4.8863413857419338e-02 8.1920134772756836e-01  0.0000000000000000e+00 4.6162202716567013e-02 8.0598872637875441e-01  0.0000000000000000e+00 3.2146788613003144e-02 7.0317329814178220e-01  0.0000000000000000e+00 4.6311816325075236e-02 8.0847475988365725e-01  0.0000000000000000e+00 7.2062686667125800e-02 9.0607096896077710e-01  0.0000000000000000e+00 7.9268157953216123e-02 9.2539578560602975e-01  0.0000000000000000e+00 1.2154083720959821e-01 9.8880397759446459e-01  0.0000000000000000e+00 1.4157006933650415e-01 1.0050928722461205e+00  0.0000000000000000e+00 1.9840388157976391e-01 1.0201692792664900e+00  0.0000000000000000e+00 2.2619010918116467e-01 1.0170922105403992e+00  0.0000000000000000e+00 1.6551690907908875e-01 1.0158608098306083e+00  0.0000000000000000e+00 2.5039411255777694e-01 1.0101444568432123e+00  0.0000000000000000e+00 1.8669920486119307e-01 1.0195359960713637e+00  0.0000000000000000e+00 2.6912051704591444e-01 1.0026755206425451e+00  0.0000000000000000e+00 2.0338371015091902e-01 1.0196249585275827e+00  0.0000000000000000e+00 2.8455168094109912e-01 9.9531537048133067e-01  0.0000000000000000e+00 3.4891911984424584e-01 9.5385221753191474e-01  0.0000000000000000e+00 3.6291656933573246e-01 9.4285748617973220e-01  0.0000000000000000e+00 2.9747825235898595e-01 9.8832521514626304e-01  0.0000000000000000e+00 3.7439176135022023e-01 9.3337072149964628e-01  0.0000000000000000e+00 4.3653718599182673e-01 8.7536991040036871e-01  0.0000000000000000e+00 4.4563536991279423e-01 8.6599644987925373e-01  0.0000000000000000e+00 5.0093670267058421e-01 8.0478028287095471e-01  0.0000000000000000e+00 5.0867679427737045e-01 7.9565907310876993e-01  0.0000000000000000e+00 4.5290606254013988e-01 8.5835936715792394e-01  0.0000000000000000e+00 5.1484386201072774e-01 7.8829652844645048e-01  0.0000000000000000e+00 5.6524242879313291e-01 7.2512101287142261e-01  0.0000000000000000e+00 5.6991983942346824e-01 7.1899323528879111e-01  0.0000000000000000e+00 5.1982701127258479e-01 7.8228777923301007e-01  0.0000000000000000e+00 6.1388422010787413e-01 6.5937475373763121e-01  0.0000000000000000e+00 6.1778510671168774e-01 6.5391024872493519e-01  0.0000000000000000e+00 6.5754871789392799e-01 5.9661362891242042e-01  0.0000000000000000e+00 6.5377917497601867e-01 6.0216930003385638e-01  0.0000000000000000e+00 6.6051388738094041e-01 5.9222556922426262e-01  0.0000000000000000e+00 6.9136260987982390e-01 5.4567858786029289e-01  0.0000000000000000e+00 2.8854311042789138e-01 9.9343150332196428e-01  0.0000000000000000e+00 6.8753549959504046e-01 5.5154146092223688e-01  0.0000000000000000e+00 7.2241244591178855e-01 4.9718843047521816e-01  0.0000000000000000e+00 7.1834504834170154e-01 5.0363518168965415e-01  0.0000000000000000e+00 7.4879495801347173e-01 4.5468763154103631e-01  0.0000000000000000e+00 7.5180343793859883e-01 4.4976681477974334e-01  0.0000000000000000e+00 7.7541486947742666e-01 4.1063099196422070e-01  0.0000000000000000e+00 7.7791666064622067e-01 4.0642919113628007e-01  0.0000000000000000e+00 7.4497224781314852e-01 4.6091854294765450e-01  0.0000000000000000e+00 7.1323156809571198e-01 5.1169959557157119e-01  0.0000000000000000e+00 7.4004990258345404e-01 4.6890599293296154e-01  0.0000000000000000e+00 7.0675181179064717e-01 5.2185408127171218e-01  0.0000000000000000e+00 7.3384336473456147e-01 4.7891988815208664e-01  0.0000000000000000e+00 6.9883395314851093e-01 5.3416465838045413e-01  0.0000000000000000e+00 7.6290189771936390e-01 4.3148725427314361e-01  0.0000000000000000e+00 7.9896818011469450e-01 3.7064408405196653e-01  0.0000000000000000e+00 8.0084820515300970e-01 3.6741045417380652e-01  0.0000000000000000e+00 1.2643582065815714e-01 9.9463378828919746e-01  0.0000000000000000e+00 7.7983011888626796e-01 4.0320829217272464e-01  0.0000000000000000e+00 8.0225181006827939e-01 3.6499232136763893e-01  0.0000000000000000e+00 7.8127744967293755e-01 4.0076758201950807e-01  0.0000000000000000e+00 8.0331692996458870e-01 3.6315479118458138e-01  0.0000000000000000e+00 7.8254371747034113e-01 3.9862910169324756e-01  0.0000000000000000e+00 2.5873954008979938e-01 1.0072869302597685e+00  0.0000000000000000e+00 3.4677072515046148e-01 9.5559239158794174e-01  0.0000000000000000e+00 8.0422651399699252e-01 3.6158385764587231e-01  0.0000000000000000e+00 7.8367848662161321e-01 3.9671041349764985e-01  0.0000000000000000e+00 7.2615858867876948e-01 4.9122801321951309e-01  0.0000000000000000e+00 6.8937177760675272e-01 5.4873661851362376e-01  0.0000000000000000e+00 6.5951988218874891e-01 5.9370368261427953e-01  0.0000000000000000e+00 6.4796451303743519e-01 6.1069566398502484e-01  0.0000000000000000e+00 8.2134491516616248e-01 3.3176079105375950e-01  0.0000000000000000e+00 6.1263709018558965e-01 6.6112391559092443e-01  0.0000000000000000e+00 5.9839138471423903e-01 6.8081029640072677e-01  0.0000000000000000e+00 1.4130195776040883e-01 1.0048189422506095e+00  0.0000000000000000e+00 7.5400775290630537e-02 9.1959136495184224e-01  0.0000000000000000e+00 8.6204295792955618e-02 9.4265162785279788e-01  0.0000000000000000e+00 4.1904428138315443e-02 7.8956085866568115e-01  0.0000000000000000e+00 4.7112530856930790e-02 8.2019774522710109e-01  0.0000000000000000e+00 9.5524136777517782e-02 9.5825260504070509e-01  0.0000000000000000e+00 5.2646140823041226e-02 8.4650997767374980e-01  0.0000000000000000e+00 1.0311249175711525e-01 9.6878767130123655e-01  0.0000000000000000e+00 5.7719931038737925e-02 8.6680908004581891e-01  0.0000000000000000e+00 1.0959334608305403e-01 9.7671361662352829e-01  0.0000000000000000e+00 6.2111760450536464e-02 8.8221035575767137e-01  0.0000000000000000e+00 1.1566418410651039e-01 9.8340484905249304e-01  0.0000000000000000e+00 6.6314997033841208e-02 8.9522619413374527e-01  0.0000000000000000e+00 1.2156300008328634e-01 9.8926446810668034e-01  0.0000000000000000e+00 7.0499820483820169e-02 9.0668282345519957e-01  0.0000000000000000e+00 1.2771673365067729e-01 9.9473504060921270e-01  0.0000000000000000e+00 3.0776235150119458e-02 7.0005154332924291e-01  0.0000000000000000e+00 7.5173847244001488e-02 9.1825892670206644e-01  0.0000000000000000e+00 1.3511906066483603e-01 1.0004397542957835e+00  0.0000000000000000e+00 1.9730465905338299e-01 1.0195532488986190e+00  0.0000000000000000e+00 2.0656460240184785e-01 1.0191990716261001e+00  0.0000000000000000e+00 2.7436891186259704e-01 1.0001985909018833e+00  0.0000000000000000e+00 2.8346468951393650e-01 9.9570308785647932e-01  0.0000000000000000e+00 3.4884735305684744e-01 9.5382014511439361e-01  0.0000000000000000e+00 3.5745896915350489e-01 9.4712172808451756e-01  0.0000000000000000e+00 4.2061565285485930e-01 8.9120631693310626e-01  0.0000000000000000e+00 4.2879737865429129e-01 8.8311504472156144e-01  0.0000000000000000e+00 4.8395649184655543e-01 8.2428827125558046e-01  0.0000000000000000e+00 4.9154297567328203e-01 8.1562945570253886e-01  0.0000000000000000e+00 5.4252862480300612e-01 7.5422527125371608e-01  0.0000000000000000e+00 5.4953270930344689e-01 7.4535005891076878e-01  0.0000000000000000e+00 5.9276541022892759e-01 6.8844766811881319e-01  0.0000000000000000e+00 5.9913345019579367e-01 6.7975943678604789e-01  0.0000000000000000e+00 6.3850893649159768e-01 6.2439694222168018e-01  0.0000000000000000e+00 2.9438042023761257e-01 9.8985897040446347e-01  0.0000000000000000e+00 6.3371135576754500e-01 6.3130013252300177e-01  0.0000000000000000e+00 5.5813007362426836e-01 7.3432131186150129e-01  0.0000000000000000e+00 3.4970114389919142e-02 7.3966480947505886e-01  0.0000000000000000e+00 8.1228309526356166e-02 9.3171535648649706e-01  0.0000000000000000e+00 4.1708587983310966e-02 7.8668455180655672e-01  0.0000000000000000e+00 6.0709366253196650e-01 6.6879499235528483e-01  0.0000000000000000e+00 4.3873208085696697e-01 8.7305934957019038e-01  0.0000000000000000e+00 2.6667449642873764e-01 1.0036949596537739e+00  0.0000000000000000e+00 6.7347365156983596e-01 5.7286058025389497e-01  0.0000000000000000e+00 6.7765095542578802e-01 5.6655781033549124e-01  0.0000000000000000e+00 7.0858393594588742e-01 5.1898244812873717e-01  0.0000000000000000e+00 7.5870375003641244e-01 4.3842379786148844e-01  0.0000000000000000e+00 8.1873302566133677e-01 3.3634428560494800e-01  0.0000000000000000e+00 8.1681702868271000e-01 3.3969926324669564e-01  0.0000000000000000e+00 6.2099289259161905e-01 6.4939476162468668e-01  0.0000000000000000e+00 2.7473806234399812e-02 6.5799677278801283e-01  0.0000000000000000e+00 8.0509641950249800e-01 3.6008013313512044e-01  0.0000000000000000e+00 8.2304165872963153e-01 3.2877650284590887e-01  0.0000000000000000e+00 6.7821905424187445e-01 5.6571728894395623e-01  0.0000000000000000e+00 5.6847028422006174e-01 7.2086005394429986e-01  0.0000000000000000e+00 7.1264608951341779e-01 5.1261002079932672e-01  0.0000000000000000e+00 7.3965725644362512e-01 4.6953505247424487e-01  0.0000000000000000e+00 8.3540444924041379e-01 3.0687599822485995e-01  0.0000000000000000e+00 8.3320675134780453e-01 3.1078969330896683e-01  0.0000000000000000e+00 3.7571073192367480e-02 7.5779582416736979e-01  0.0000000000000000e+00 2.4800766607808399e-02 6.1492945575390101e-01  0.0000000000000000e+00 6.1695200415237317e-01 6.5505531792248861e-01  0.0000000000000000e+00 6.7653862022982214e-01 5.6825129770226590e-01  0.0000000000000000e+00 4.9132975301207138e-01 8.1591811734837705e-01  0.0000000000000000e+00 1.7639306392469162e-01 1.0177339685175468e+00  0.0000000000000000e+00 4.7784899253299673e-01 8.3116704051951817e-01  0.0000000000000000e+00 3.1686145828755513e-01 9.7666318142878650e-01  0.0000000000000000e+00 2.0281649311190797e-01 1.0184245588250247e+00  0.0000000000000000e+00 8.8351776591941222e-01 2.1858683253409364e-01  0.0000000000000000e+00 1.7884056924071232e-02 4.4859645755151606e-01  0.0000000000000000e+00 4.6812453952269614e-02 8.1510493276660201e-01  0.0000000000000000e+00 6.8941499308314680e-01 5.4871231775581530e-01  0.0000000000000000e+00 6.8298446728474649e-01 5.5846918997029749e-01  0.0000000000000000e+00 8.3153404327602420e-01 3.1376181796990721e-01  0.0000000000000000e+00 8.4971133918295649e-01 2.8115165611716292e-01  0.0000000000000000e+00 8.5083093727863812e-01 2.7911860632779834e-01  0.0000000000000000e+00 4.0208973385389546e-01 9.0896826049468249e-01  0.0000000000000000e+00 5.5956792900536556e-01 7.3250980493562612e-01  0.0000000000000000e+00 3.7182860816933788e-01 9.3555389147044199e-01  0.0000000000000000e+00 8.1431216340053847e-01 3.4407541857609669e-01  0.0000000000000000e+00 8.3056684183203244e-01 3.1548051693870671e-01  0.0000000000000000e+00 8.9496153921358637e-02 9.4745967396935238e-01  0.0000000000000000e+00 6.7018918155196106e-01 5.7779584705764020e-01  0.0000000000000000e+00 6.6296039601029477e-01 5.8859244566544333e-01  0.0000000000000000e+00 6.2987703329015254e-01 6.3678699875455558e-01  0.0000000000000000e+00 8.2381163862841944e-01 3.2741918845807000e-01  0.0000000000000000e+00 8.4033734287236383e-01 2.9805328952599475e-01  0.0000000000000000e+00 8.0614643572868805e-01 3.5826336288224192e-01  0.0000000000000000e+00 7.4325481167784058e-01 4.6370501085850929e-01  0.0000000000000000e+00 7.6667062716939793e-01 4.2522832733314853e-01  0.0000000000000000e+00 2.4005655508461090e-02 5.9995048816353103e-01  0.0000000000000000e+00 3.1532117750511679e-02 6.9808895708558538e-01  0.0000000000000000e+00 1.9074799839883628e-02 4.8934592296216101e-01  0.0000000000000000e+00 5.4256220525157009e-02 8.4884208571333475e-01  0.0000000000000000e+00 1.0073845712240065e-01 9.6491939159794404e-01  0.0000000000000000e+00 2.7538513852915690e-02 6.5423699033876292e-01  0.0000000000000000e+00 3.7203668179513871e-01 9.3546211285383796e-01  0.0000000000000000e+00 4.5205501997219938e-01 8.5934754831300586e-01  0.0000000000000000e+00 4.2346884194555978e-01 8.8849772400729554e-01  0.0000000000000000e+00 4.9766540173910756e-01 8.0866363460375390e-01  0.0000000000000000e+00 5.5163645561202168e-01 7.4269794577342363e-01  0.0000000000000000e+00 5.7377485825705288e-01 7.1392016256628532e-01  0.0000000000000000e+00 3.0802941936036388e-01 9.8207186752321118e-01  0.0000000000000000e+00 7.3696722172554097e-01 4.7388210830001359e-01  0.0000000000000000e+00 7.5594370191845561e-01 4.4297004426564468e-01  0.0000000000000000e+00 8.2464650036290177e-01 3.2594582215790419e-01  0.0000000000000000e+00 2.3018149471811067e-01 1.0157111231668321e+00  0.0000000000