<?xml version="1.0"?>
<VTKFile type="UnstructuredGrid"  version="0.1"  >
<UnstructuredGrid>
<Piece  NumberOfPoints="645" NumberOfCells="1208">
<Points>
<DataArray  type="Float64"  NumberOfComponents="3"  format="ascii">500 250 0  0 250 0  250 500 0  250 0 0  269.6147739849193 499.2293334291141 0  289.1086163645346 496.9220851322369 0  308.3613411380662 493.0924800576239 0  327.2542488153708 487.7641290017751 0  345.6708583410312 480.9698830243682 0  363.4976252268579 472.7516308983252 0  380.6246415053586 463.1600408885224 0  396.9463134355418 452.2542483304208 0  412.3620124901979 440.1014910518401 0  426.7766957038264 426.7766948894474 0  440.1014917275007 412.3620116991009 0  452.2542488669409 396.9463126970852 0  463.1600413033558 380.6246408284121 0  472.751631216677 363.4976246020575 0  480.9698832532689 345.6708577884161 0  487.7641291438106 327.2542483782306 0  493.0924801408104 308.3613407915692 0  496.9220851690424 289.1086161321545 0  499.2293334387019 269.6147738630947 0  499.229333430357 230.3852260308728 0  496.9220851356368 210.8913836569316 0  493.0924800663345 191.6386588982162 0  487.7641290184218 172.7457512358624 0  480.9698830399936 154.3291416966919 0  472.7516309070343 136.5023747902346 0  463.1600408987175 119.3753585112783 0  452.2542483410546 103.0536865790945 0  440.1014910714183 87.63798753272525 0  426.7766948943133 73.22330430103958 0  412.3620117009348 59.89850827406559 0  396.9463126913573 47.74575112889752 0  380.6246408261736 36.83995869527249 0  363.4976245953484 27.24836877990464 0  345.6708577827026 19.03011674436451 0  327.2542483716913 12.23587085406467 0  308.361340780398 6.907519856507577 0  289.1086161262194 3.077914830017676 0  269.6147738583604 0.7706665609254912 0  230.3852260302092 0.7706665696952655 0  210.8913836535466 3.077914864899299 0  191.6386589008631 6.907519933030017 0  172.7457512318028 12.23587098289721 0  154.3291416990867 19.03011695901438 0  136.5023748091553 27.24836908332517 0  119.3753585100802 36.83995910201668 0  103.0536865836863 47.74575165560921 0  87.6379875279894 59.89850893262656 0  73.22330429312285 73.2233051136034 0  59.89850825318987 87.6379883235075 0  47.74575112052588 103.0536873201654 0  36.83995867902311 119.375359200343 0  27.24836876726107 136.502375429466 0  19.03011674184958 154.3291422233689 0  12.23587084468659 172.7457516571714 0  6.90751985664113 191.6386592190457 0  3.07791483051173 210.8913838706611 0  0.7706665612319625 230.3852261377458 0  0.770666570878916 269.6147739848303 0  3.077914868063033 289.1086163664283 0  6.907519941211973 308.3613411332171 0  12.23587099861078 327.2542488165586 0  19.03011697319531 345.6708583351491 0  27.24836908997781 363.4976252039013 0  36.83995910945072 380.624641502051 0  47.74575166272689 396.9463134261104 0  59.89850895284744 412.3620124956862 0  73.223305118437 426.7766957117107 0  87.63798832904175 440.1014917515369 0  103.0536873198473 452.2542488792431 0  119.3753591950333 463.1600413177231 0  136.502375416904 472.7516312263383 0  154.3291422204512 480.9698832569418 0  172.7457516527922 487.7641291538905 0  191.6386592093489 493.0924801410308 0  210.891383865478 496.9220851686673 0  230.38522613373 499.229333438452 0  408.0297414380137 79.04438812052823 0  470.6929872351991 328.8394125533284 0  327.5791944935511 30.66901791634585 0  186.8066927430735 474.0665667617239 0  241.1725543363619 17.80467707257488 0  481.8957906849985 237.8895419164845 0  241.9028711997863 481.7677876757489 0  22.04240264610397 260.0195362144032 0  66.93524317993541 393.9967576354165 0  407.5748062742585 421.804202868455 0  91.14498776833713 78.15950434153694 0  443.5721620986452 120.6592159456753 0  47.90357490700103 137.2584608638679 0  121.9854148726425 53.89110248018969 0  346.0986346915193 460.9657062005573 0  37.15978683308909 348.686261000426 0  443.2617512614241 379.6653657108164 0  469.6395010170255 166.6128966790255 0  169.4214360799271 31.58224567687904 0  120.0926710183088 443.0188983543295 0  25.93343325113663 186.8066927541892 0  294.4711068775667 479.0497777351075 0  25.93343346326644 313.1933076022177 0  379.5895462631086 444.9259942605202 0  477.3836837079734 202.381284598844 0  91.97025859159305 420.9556118868529 0  201.8099842058005 21.62718472283686 0  378.9340731306958 56.62233582097542 0  452.9866090845981 363.3843712213892 0  433.7891058935094 362.712636160478 0  423.9473865733744 379.4564211535431 0  414.2436151024774 362.5677032958672 0  424.001708291139 345.6669244533275 0  404.4610922180836 345.5134771956895 0  414.341417486195 328.5773255591307 0  394.7677429029752 328.480795053565 0  404.6609853910698 311.5262601202149 0  385.031291303632 311.4357195826571 0  375.101270673993 328.3607598117625 0  365.3740866097247 311.3257829175604 0  355.5083459394236 328.2997490723603 0  345.7718933714782 311.2546684470915 0  335.8786468089485 328.2092240351425 0  326.1421942370671 311.1641433897183 0  336.003344415795 294.1838138923774 0  316.3860344407723 294.1066032295112 0  306.5124951000444 311.0736183338123 0  296.7501789069282 294.0121813369556 0  306.6515351153541 277.0655652779993 0  287.0395899630898 276.98345703061 0  296.9328365330605 260.0289014374702 0  277.2982248613483 259.9358158720167 0  267.3990712864435 276.8845676964974 0  257.6713884944854 259.8456251093223 0  267.5666848269919 242.8932957192846 0  247.9365419809313 242.8056592582466 0  238.0437391039621 259.7573262582974 0  257.8302322568193 225.8482150584726 0  238.2005331082895 225.757689997251 0  248.0937796848919 208.8031343943687 0  267.7234788341136 208.8936594571897 0  228.4640805329348 208.712609333587 0  257.9870262635756 191.8485787959149 0  394.9245487736064 294.4811717944075 0  277.6167254091284 191.9391038586934 0  267.8802728403858 174.8940232011079 0  287.5005584344734 175.0117093161379 0  277.7685743892544 157.9663496219783 0  258.1421294336732 157.8702099927723 0  268.0370668499073 140.8943869520292 0  248.4073677066822 140.803861887803 0  297.4032185518097 158.029992671988 0  307.1396711152761 175.0750733211352 0  317.0329176840529 158.1205177336628 0  326.7693702482894 175.1655983760161 0  336.6626168121476 158.2110427905018 0  346.3990693731281 175.2561234311168 0  326.9054332650823 141.220514475552 0  258.300614283603 123.8493062912708 0  238.6709151364965 123.7587812267517 0  345.602770870788 345.2345146507195 0  228.7776685563935 140.7133368276114 0  219.0412159824577 123.6682561607107 0  209.1548086869 140.6568288028854 0  199.4115168211257 123.5777310947873 0  189.5182702336654 140.5322867083881 0  414.5061001206328 294.5791962676446 0  404.8178099709576 277.5266248278496 0  179.7818176563396 123.4872060318257 0  169.8885710669681 140.4417616462852 0  356.2923159345929 158.3015678516131 0  366.0287684987967 175.3466484913704 0  356.1355219340599 192.3012040743702 0  375.7652210728186 192.3917291327877 0  209.3047634085723 106.6231754828329 0  365.8719745031602 209.3462847214261 0  385.4473336989289 209.4589172776483 0  325.9854002589402 345.1637796339881 0  335.7218528424219 362.2088602706556 0  316.0921537106989 362.1183352318304 0  325.8286062932657 379.163415866528 0  306.198907162322 379.0728908286862 0  296.4624545814172 362.0278101960448 0  286.5692080329665 378.982365791018 0  276.8327554515532 361.9372851563691 0  266.939508902649 378.8918407521974 0  257.2030563201347 361.8467601163857 0  247.3098097697766 378.8013157143188 0  237.5733571858447 361.7562350760078 0  227.6801106339195 378.7107906764817 0  217.943658048477 361.6657100354885 0  208.0504114944145 378.6202656389371 0  198.313958909151 361.5751849900388 0  257.046262353733 395.8463963506437 0  188.4207123491114 378.5297405967377 0  178.6942702061005 361.4572585380363 0  188.5775063311286 344.5301043308571 0  168.9825719925815 344.3679587423489 0  178.862757141982 327.4597476508416 0  159.2319047656242 327.3721603214715 0  169.1046011625246 310.4399430048529 0  149.4749020045267 310.3494179549329 0  159.3681485763936 293.3948623397931 0  139.7621343179957 293.2923655078865 0  149.6316959897331 276.3497816754953 0  130.001996832586 276.2592566257254 0  139.8952434039481 259.3047010132285 0  120.2655442487169 259.2141759632096 0  130.1587908193085 242.2596203521963 0  110.5290916658602 242.1690953021686 0  120.4223382355493 225.2145396926986 0  139.5816554329651 327.3039735703393 0  140.0520373886098 225.3050647418833 0  100.6358450969261 259.1236509112424 0  217.7868640819771 395.665346280658 0  168.7910131993309 378.4392155450739 0  178.5274657798013 395.4842962032838 0  90.89939251396862 242.0785702520503 0  120.1087502632246 293.2138122376823 0  198.4827020443107 327.560288315778 0  130.3155848042933 208.2599840821261 0  110.6858856511 208.169459032866 0  120.5791322200218 191.2149034219518 0  179.6250236464644 157.4868423201703 0  248.5641617155314 106.8042256262046 0  268.1938608640521 106.8947506897054 0  218.5708339532014 225.6671649402842 0  296.3097884844733 395.9656221920631 0  160.1521184905691 123.396680968142 0  170.0453650783119 106.4421253476802 0  385.658427623638 175.451920499978 0  81.00614594559451 259.0331258609116 0  101.0554053508192 191.1247040573367 0  110.8426796353596 174.1698227613512 0  258.4574082944565 89.84967002797657 0  278.0871074405096 89.94019509160398 0  345.4583054269535 379.2539409100921 0  335.5650588729622 396.2084965020994 0  71.26969336281471 241.9880452024695 0  316.8761236845766 192.1201539629169 0  316.5489845965977 260.1172740927201 0  247.4666037372683 344.8016794754746 0  169.261395148653 276.4403067246208 0  424.4475090085939 277.6171671056567 0  477.5061263880716 295.9860753924438 0  297.7010004405789 21.78753761157149 0  152.5329738481066 461.4223243306178 0  158.8977666313233 395.3937711508539 0  18.80645331331318 222.6364406178562 0  91.05618649809102 208.0789339835232 0  67.55529962754241 105.2642692875928 0  268.3506548722531 72.89511443289081 0  248.7209557265558 72.80458936723331 0  414.7110714038412 260.5720779140291 0  375.5311866215619 226.3973061791794 0  385.1881
[...]
<PointData  Vectors="f_12"> 
<DataArray  type="Float64"  Name="f_12"  NumberOfComponents="3" format="ascii">0.0000000000000000e+00 3.9208788458470356e-01 9.1791972282849543e-01  0.0000000000000000e+00 6.6178566872613698e-01 5.9026989776890260e-01  0.0000000000000000e+00 1.5311705561481835e-02 2.5402357487369442e-01  0.0000000000000000e+00 8.9866735862305946e-01 1.8955024852829619e-01  0.0000000000000000e+00 1.5317039283446769e-02 2.4951469229974768e-01  0.0000000000000000e+00 1.5317558353470262e-02 2.5031889743924302e-01  0.0000000000000000e+00 1.5292118736320547e-02 2.5769754987179588e-01  0.0000000000000000e+00 1.5286290560506082e-02 2.7245515533063008e-01  0.0000000000000000e+00 1.5354769184903133e-02 2.9311215155229287e-01  0.0000000000000000e+00 1.5533719582486120e-02 3.1893532885324138e-01  0.0000000000000000e+00 1.5897477771319075e-02 3.5083674659961639e-01  0.0000000000000000e+00 1.6627946008719717e-02 3.9503079945427400e-01  0.0000000000000000e+00 1.7918124590447320e-02 4.4999171185491899e-01  0.0000000000000000e+00 2.0055169340327878e-02 5.1431621133669891e-01  0.0000000000000000e+00 2.3747945450181433e-02 5.9191786068405239e-01  0.0000000000000000e+00 3.0611187048923016e-02 6.8631200542793591e-01  0.0000000000000000e+00 4.2538277576308750e-02 7.8341203132067705e-01  0.0000000000000000e+00 6.3088764600650341e-02 8.7702656753554964e-01  0.0000000000000000e+00 9.4693641773241521e-02 9.5194062017136749e-01  0.0000000000000000e+00 1.4043848413914062e-01 1.0013020565947204e+00  0.0000000000000000e+00 1.9685290161661242e-01 1.0181391468322578e+00  0.0000000000000000e+00 2.6159840422736219e-01 1.0046536728157938e+00  0.0000000000000000e+00 3.2834980125981394e-01 9.6847768256914624e-01  0.0000000000000000e+00 4.6110065951322671e-01 8.4948311320912362e-01  0.0000000000000000e+00 5.2103748132376948e-01 7.8076105928998996e-01  0.0000000000000000e+00 5.7754882432214394e-01 7.0885209850653508e-01  0.0000000000000000e+00 6.2765338524724734e-01 6.3996694955708211e-01  0.0000000000000000e+00 6.7165521006456552e-01 5.7559626694693178e-01  0.0000000000000000e+00 7.1052482227763702e-01 5.1594087041079895e-01  0.0000000000000000e+00 7.4347499551538876e-01 4.6335021989178227e-01  0.0000000000000000e+00 7.7237066366502460e-01 4.1573313796762057e-01  0.0000000000000000e+00 7.9794452705205510e-01 3.7241958074092479e-01  0.0000000000000000e+00 8.1770155990677829e-01 3.3815288636484692e-01  0.0000000000000000e+00 8.3528593760866732e-01 3.0710542710543026e-01  0.0000000000000000e+00 8.5008170734229682e-01 2.8049479868195631e-01  0.0000000000000000e+00 8.6187436657335037e-01 2.5898181746528609e-01  0.0000000000000000e+00 8.7240401557706682e-01 2.3949995302479571e-01  0.0000000000000000e+00 8.8063145971149270e-01 2.2409185227654105e-01  0.0000000000000000e+00 8.8628498849893511e-01 2.1337230899897486e-01  0.0000000000000000e+00 8.9094186151368726e-01 2.0446811554378988e-01  0.0000000000000000e+00 8.9532122590980612e-01 1.9604797865552254e-01  0.0000000000000000e+00 8.9853359448243830e-01 1.8983189815617280e-01  0.0000000000000000e+00 8.9954561065629091e-01 1.8784982315653437e-01  0.0000000000000000e+00 8.9868017561564373e-01 1.8953215680010790e-01  0.0000000000000000e+00 8.9669173948392711e-01 1.9338454508051930e-01  0.0000000000000000e+00 8.9440704847601959e-01 1.9780974565278928e-01  0.0000000000000000e+00 8.9098096060488119e-01 2.0440235732431472e-01  0.0000000000000000e+00 8.8619730351714954e-01 2.1353073952943222e-01  0.0000000000000000e+00 8.8125365916880616e-01 2.2290892374557192e-01  0.0000000000000000e+00 8.7523720506684366e-01 2.3421882261780830e-01  0.0000000000000000e+00 8.6729754081484633e-01 2.4898335571382635e-01  0.0000000000000000e+00 8.5831112243592078e-01 2.6551438238841424e-01  0.0000000000000000e+00 8.4901095606623134e-01 2.8244222089701071e-01  0.0000000000000000e+00 8.3808468406077585e-01 3.0210757190380172e-01  0.0000000000000000e+00 8.2485385389270693e-01 3.2559211191585924e-01  0.0000000000000000e+00 8.1032170828638972e-01 3.5105663861518477e-01  0.0000000000000000e+00 7.9321034845232130e-01 3.8050519136365013e-01  0.0000000000000000e+00 7.7359548587908433e-01 4.1367358665076231e-01  0.0000000000000000e+00 7.5189860613365422e-01 4.4957980130187553e-01  0.0000000000000000e+00 7.2717222820442673e-01 4.8958050732261243e-01  0.0000000000000000e+00 6.9621679781528378e-01 5.3816968558418132e-01  0.0000000000000000e+00 6.2615092299966102e-01 6.4207365640883829e-01  0.0000000000000000e+00 5.7834302499362811e-01 7.0779160660271145e-01  0.0000000000000000e+00 5.2678286750090308e-01 7.7366806524226006e-01  0.0000000000000000e+00 4.6759932207947780e-01 8.4249919799454753e-01  0.0000000000000000e+00 4.0124855425722455e-01 9.0931272733661805e-01  0.0000000000000000e+00 3.3063697706404932e-01 9.6683510294372765e-01  0.0000000000000000e+00 2.5706571684764173e-01 1.0069603640043423e+00  0.0000000000000000e+00 1.8727838102354716e-01 1.0181286642649434e+00  0.0000000000000000e+00 1.2447958560978220e-01 9.8974800128878204e-01  0.0000000000000000e+00 7.7214431077007678e-02 9.1887068667820049e-01  0.0000000000000000e+00 4.7791730884366036e-02 8.1483908926298343e-01  0.0000000000000000e+00 3.1432642756847810e-02 6.9621066204916660e-01  0.0000000000000000e+00 2.2844630303473692e-02 5.7778083391389079e-01  0.0000000000000000e+00 1.9164818620533635e-02 4.9017501145894882e-01  0.0000000000000000e+00 1.6888890180011409e-02 4.0794107488099468e-01  0.0000000000000000e+00 1.5931331079289048e-02 3.5415239949192040e-01  0.0000000000000000e+00 1.5500715686739167e-02 3.1489362770067386e-01  0.0000000000000000e+00 1.5323660420339504e-02 2.8606555329449207e-01  0.0000000000000000e+00 1.5280304296475028e-02 2.6678244229938697e-01  0.0000000000000000e+00 8.2225538741532334e-01 3.3015473524156569e-01  0.0000000000000000e+00 1.2838993054998771e-01 9.9226937267746917e-01  0.0000000000000000e+00 8.7891250537891807e-01 2.2727562543964613e-01  0.0000000000000000e+00 1.5887091230979779e-02 3.4991954548123333e-01  0.0000000000000000e+00 8.9277524558595489e-01 2.0089312890053890e-01  0.0000000000000000e+00 4.4491157882124244e-01 8.6621640892302476e-01  0.0000000000000000e+00 1.5277750724526773e-02 2.7556230999431891e-01  0.0000000000000000e+00 6.3155290387697904e-01 6.3429188737348430e-01  0.0000000000000000e+00 1.6008785437037137e-01 1.0120240628299351e+00  0.0000000000000000e+00 1.9423011657312909e-02 4.9688313865405354e-01  0.0000000000000000e+00 8.5752235537879395e-01 2.6693537560073166e-01  0.0000000000000000e+00 7.5570501065121309e-01 4.4337056165823185e-01  0.0000000000000000e+00 8.0901115707025972e-01 3.5331199334095126e-01  0.0000000000000000e+00 8.7398459418444230e-01 2.3652275881765045e-01  0.0000000000000000e+00 1.5544620967373404e-02 3.2071032249457521e-01  0.0000000000000000e+00 3.6344114243980929e-01 9.4177646417544625e-01  0.0000000000000000e+00 3.8099273808356225e-02 7.5412164389546288e-01  0.0000000000000000e+00 6.5558051541652984e-01 5.9951640430596598e-01  0.0000000000000000e+00 8.8681936543752882e-01 2.1231985450529967e-01  0.0000000000000000e+00 2.8206087172130620e-02 6.5804082037264655e-01  0.0000000000000000e+00 7.5587419119536470e-01 4.4307849794610632e-01  0.0000000000000000e+00 1.5279981004412611e-02 2.6689148779277166e-01  0.0000000000000000e+00 4.9249470397491163e-01 8.1454053875633359e-01  0.0000000000000000e+00 1.6450980293303639e-02 3.8570084324466247e-01  0.0000000000000000e+00 5.5872800372377385e-01 7.3363702313902368e-01  0.0000000000000000e+00 6.3885181681250430e-02 8.8058026142956591e-01  0.0000000000000000e+00 8.9168541366535958e-01 2.0298946884026281e-01  0.0000000000000000e+00 8.5111769881808863e-01 2.7861223115678418e-01  0.0000000000000000e+00 5.5850919266573033e-02 8.5133554650048926e-01  0.0000000000000000e+00 5.8464948127248617e-02 8.6376981594831115e-01  0.0000000000000000e+00 3.8230115458594914e-02 7.5779688011174962e-01  0.0000000000000000e+00 6.8219815531831290e-02 8.9849437565455481e-01  0.0000000000000000e+00 1.0619301911309298e-01 9.7259814615177498e-01  0.0000000000000000e+00 1.2915410936108823e-01 9.9635981619528591e-01  0.0000000000000000e+00 1.8192000613008469e-01 1.0188506118503882e+00  0.0000000000000000e+00 2.0612038663085896e-01 1.0192956741851020e+00  0.0000000000000000e+00 2.6437584641660772e-01 1.0046158295710976e+00  0.0000000000000000e+00 2.8745063421392175e-01 9.9369221104677097e-01  0.0000000000000000e+00 2.2707952820114477e-01 1.0163612959438737e+00  0.0000000000000000e+00 3.0776712554203645e-01 9.8212426135026620e-01  0.0000000000000000e+00 2.4571926686203813e-01 1.0114443691865462e+00  0.0000000000000000e+00 3.2466845229355018e-01 9.7121368027290866e-01  0.0000000000000000e+00 2.6204290950892550e-01 1.0055207366675742e+00  0.0000000000000000e+00 3.3878745054159681e-01 9.6128286422617060e-01  0.0000000000000000e+00 3.9947381778826868e-01 9.1121409685339128e-01  0.0000000000000000e+00 4.1202261910700833e-01 8.9947985663174224e-01  0.0000000000000000e+00 3.5043380394747925e-01 9.5257739063987268e-01  0.0000000000000000e+00 4.2215352757335295e-01 8.8968828364423391e-01  0.0000000000000000e+00 4.7730178242248622e-01 8.3176776793581264e-01  0.0000000000000000e+00 4.8545513938492979e-01 8.2258566725329507e-01  0.0000000000000000e+00 5.3683680920790589e-01 7.6135636128025408e-01  0.0000000000000000e+00 5.4364290696101358e-01 7.5281989981056530e-01  0.0000000000000000e+00 4.9204626821858671e-01 8.1505484450926946e-01  0.0000000000000000e+00 5.4896997903154243e-01 7.4607033274782331e-01  0.0000000000000000e+00 5.9352025090446436e-01 6.8742455278925452e-01  0.0000000000000000e+00 5.9772263066928777e-01 6.8169610811284675e-01  0.0000000000000000e+00 5.5318483864930845e-01 7.4068909645036474e-01  0.0000000000000000e+00 6.3878336239211242e-01 6.2400295197065048e-01  0.0000000000000000e+00 6.4220618327337065e-01 6.1905250908896003e-01  0.0000000000000000e+00 6.7738399494234425e-01 5.6696422488155596e-01  0.0000000000000000e+00 6.7407083766179665e-01 5.7196232344838649e-01  0.0000000000000000e+00 6.7998399042525770e-01 5.6302884180359347e-01  0.0000000000000000e+00 7.0911493405564130e-01 5.1815283105819299e-01  0.0000000000000000e+00 3.4476411978706656e-01 9.5690991553336502e-01  0.0000000000000000e+00 7.0553542034691819e-01 5.2374539498263550e-01  0.0000000000000000e+00 7.3730557548246634e-01 4.7333597595655891e-01  0.0000000000000000e+00 7.3376180130143864e-01 4.7904486555887371e-01  0.0000000000000000e+00 7.6126562402325060e-01 4.3419178361047545e-01  0.0000000000000000e+00 7.6409573929338315e-01 4.2950541411845533e-01  0.0000000000000000e+00 7.8646494718288051e-01 3.9198961684578926e-01  0.0000000000000000e+00 7.8871895674611137e-01 3.8816121564667533e-01  0.0000000000000000e+00 7.5771980350662649e-01 4.4004438970080073e-01  0.0000000000000000e+00 7.2929428779987426e-01 4.8621165869409971e-01  0.0000000000000000e+00 7.5325434998089869e-01 4.4738549985561027e-01  0.0000000000000000e+00 7.2357924890907055e-01 4.9532986855252875e-01  0.0000000000000000e+00 7.4776104028822299e-01 4.5637206721643153e-01  0.0000000000000000e+00 7.1647955062629576e-01 5.0657888365601722e-01  0.0000000000000000e+00 7.7492533747135894e-01 4.1145011931715531e-01  0.0000000000000000e+00 8.0761513761887527e-01 3.5571923968731350e-01  0.0000000000000000e+00 8.0931487032017446e-01 3.5277069927580446e-01  0.0000000000000000e+00 1.8432950505290957e-01 1.0187894600985361e+00  0.0000000000000000e+00 7.9041603688228901e-01 3.8527287842055569e-01  0.0000000000000000e+00 8.1058362195818046e-01 3.5056663040728681e-01  0.0000000000000000e+00 7.9166647269839152e-01 3.8314124492988560e-01  0.0000000000000000e+00 8.1153484562116474e-01 3.4891214865700837e-01  0.0000000000000000e+00 7.9272770936062487e-01 3.8132993003884197e-01  0.0000000000000000e+00 3.2122000265042738e-01 9.7358354817517023e-01  0.0000000000000000e+00 3.9959732963848388e-01 9.1112355832446701e-01  0.0000000000000000e+00 8.1232166645629600e-01 3.4754230754800769e-01  0.0000000000000000e+00 7.9364059683244037e-01 3.7977032156833151e-01  0.0000000000000000e+00 7.4109075940339542e-01 4.6721719548425494e-01  0.0000000000000000e+00 7.0785239731426031e-01 5.2013094819844075e-01  0.0000000000000000e+00 6.7987019829337947e-01 5.6320546802117366e-01  0.0000000000000000e+00 6.6989262315717091e-01 5.7824413867910363e-01  0.0000000000000000e+00 8.2891319012620690e-01 3.1841032326597790e-01  0.0000000000000000e+00 6.3845772764668274e-01 6.2447746652533054e-01  0.0000000000000000e+00 6.2576658923811324e-01 6.4263870277254698e-01  0.0000000000000000e+00 1.9797489862168899e-01 1.0195440248919732e+00  0.0000000000000000e+00 1.2677131710078093e-01 9.9370241755206135e-01  0.0000000000000000e+00 1.3794444733184169e-01 1.0020831617057582e+00  0.0000000000000000e+00 7.9198390815457501e-02 9.2609596423886564e-01  0.0000000000000000e+00 8.6596909538144751e-02 9.4127631320620486e-01  0.0000000000000000e+00 1.4752595628811577e-01 1.0076931661318651e+00  0.0000000000000000e+00 9.3042582264242085e-02 9.5284260487314087e-01  0.0000000000000000e+00 1.5555094761361371e-01 1.0114121641305927e+00  0.0000000000000000e+00 9.8767751578638346e-02 9.6190691432524000e-01  0.0000000000000000e+00 1.6232038880234440e-01 1.0139248705412813e+00  0.0000000000000000e+00 1.0399454138216224e-01 9.6925985839647422e-01  0.0000000000000000e+00 1.6829003912055715e-01 1.0157044307285459e+00  0.0000000000000000e+00 1.0907499765239091e-01 9.7563870331993252e-01  0.0000000000000000e+00 1.7400996359530618e-01 1.0170487232851984e+00  0.0000000000000000e+00 1.1446195414253696e-01 9.8170625918228371e-01  0.0000000000000000e+00 1.8008118386858510e-01 1.0181063958098209e+00  0.0000000000000000e+00 5.7997405655130285e-02 8.6451894987199129e-01  0.0000000000000000e+00 1.2062861936023241e-01 9.8788906430936718e-01  0.0000000000000000e+00 1.8706887873357442e-01 1.0189028027496456e+00  0.0000000000000000e+00 2.5252837032832842e-01 1.0090339716717944e+00  0.0000000000000000e+00 2.6041973091904208e-01 1.0060522770315175e+00  0.0000000000000000e+00 3.2577805579309110e-01 9.7037846453272203e-01  0.0000000000000000e+00 3.3308430403787259e-01 9.6527883805731773e-01  0.0000000000000000e+00 3.9571874124684409e-01 9.1458591089284591e-01  0.0000000000000000e+00 4.0292882840051086e-01 9.0796906722185089e-01  0.0000000000000000e+00 4.6016198315340573e-01 8.5053623017211044e-01  0.0000000000000000e+00 4.6674308530267883e-01 8.4338840016519756e-01  0.0000000000000000e+00 5.1865931074697025e-01 7.8365117865628553e-01  0.0000000000000000e+00 5.2502766404581047e-01 7.7590745299603103e-01  0.0000000000000000e+00 5.7110871392341722e-01 7.1739288595703732e-01  0.0000000000000000e+00 5.7674723242161641e-01 7.0993447103923712e-01  0.0000000000000000e+00 6.1722427648893641e-01 6.5467284123466596e-01  0.0000000000000000e+00 6.2271619365531561e-01 6.4693539475936557e-01  0.0000000000000000e+00 6.5886979188580475e-01 5.9464000156031338e-01  0.0000000000000000e+00 3.4199474750145603e-01 9.5882831347300190e-01  0.0000000000000000e+00 6.5504736743877356e-01 6.0028432272702636e-01  0.0000000000000000e+00 5.8393935210041403e-01 7.0033536983272671e-01  0.0000000000000000e+00 6.5265077360048621e-02 8.8901849396619081e-01  0.0000000000000000e+00 1.2819488542546204e-01 9.9448778777753599e-01  0.0000000000000000e+00 7.4507815680255565e-02 9.1470674783695305e-01  0.0000000000000000e+00 6.2973295081817227e-01 6.3696960325175334e-01  0.0000000000000000e+00 4.7497991777310467e-01 8.3430635441057654e-01  0.0000000000000000e+00 3.1962688315285165e-01 9.7451785516575729e-01  0.0000000000000000e+00 6.9082703986886040e-01 5.4648819964155670e-01  0.0000000000000000e+00 6.9441795660335637e-01 5.4096663308649495e-01  0.0000000000000000e+00 7.2381104150467168e-01 4.9495479525796637e-01  0.0000000000000000e+00 7.7046102523008353e-01 4.1891600813508484e-01  0.0000000000000000e+00 8.2646585970317199e-01 3.2273888577652654e-01  0.0000000000000000e+00 8.2462829702612550e-01 3.2598195573867511e-01  0.0000000000000000e+00 6.4494288854807191e-01 6.1507836961656515e-01  0.0000000000000000e+00 5.0936463560452269e-02 8.3549665932321115e-01  0.0000000000000000e+00 8.1304385034855153e-01 3.4628404922558670e-01  0.0000000000000000e+00 8.3039732949137457e-01 3.1577965733697383e-01  0.0000000000000000e+00 6.9765777016900443e-01 5.3598034795919192e-01  0.0000000000000000e+00 5.9298538221981334e-01 6.8812256118867343e-01  0.0000000000000000e+00 7.2716547655483588e-01 4.8960621723317799e-01  0.0000000000000000e+00 7.5159912547706953e-01 4.5009348649136427e-01  0.0000000000000000e+00 8.4192856498943047e-01 2.9519721440402846e-01  0.0000000000000000e+00 8.3996694310168685e-01 2.9871633293507965e-01  0.0000000000000000e+00 7.0880491120256822e-02 9.0612251866506677e-01  0.0000000000000000e+00 4.1452316490745135e-02 7.8544044437225846e-01  0.0000000000000000e+00 6.3843420917053417e-01 6.2448727228061185e-01  0.0000000000000000e+00 6.9524715363038703e-01 5.3969813651875043e-01  0.0000000000000000e+00 5.2823935767601315e-01 7.7200027070499433e-01  0.0000000000000000e+00 2.3390936695298484e-01 1.0147300739349976e+00  0.0000000000000000e+00 5.1361041209342517e-01 7.8972927886319566e-01  0.0000000000000000e+00 3.7500897532506422e-01 9.3284897737062034e-01  0.0000000000000000e+00 2.3149849988295557e-01 1.0149359844047166e+00  0.0000000000000000e+00 8.8701517167414834e-01 2.1193692023305277e-01  0.0000000000000000e+00 1.8395558289045582e-02 4.6665055369945746e-01  0.0000000000000000e+00 8.1286820376592683e-02 9.3020640591965398e-01  0.0000000000000000e+00 7.0479120125564831e-01 5.2494738026833376e-01  0.0000000000000000e+00 6.9914114866665023e-01 5.3367190039930790e-01  0.0000000000000000e+00 8.3769213369330087e-01 3.0278921043607704e-01  0.0000000000000000e+00 8.5503046921744597e-01 2.7148042744148754e-01  0.0000000000000000e+00 8.5608284733047135e-01 2.6955733455747127e-01  0.0000000000000000e+00 4.5005941140098082e-01 8.6135000975653142e-01  0.0000000000000000e+00 5.8969663592365118e-01 6.9261737746126950e-01  0.0000000000000000e+00 4.2122224418157522e-01 8.9062548413948639e-01  0.0000000000000000e+00 8.2222440191776303e-01 3.3021488805285504e-01  0.0000000000000000e+00 8.3760050264634633e-01 3.0295370180008407e-01  0.0000000000000000e+00 1.3796785894386476e-01 1.0016096616569272e+00  0.0000000000000000e+00 6.8808017293823076e-01 5.5069744958192424e-01  0.0000000000000000e+00 6.8209417320563603e-01 5.5982570633425499e-01  0.0000000000000000e+00 6.5204057142770411e-01 6.0470616004563449e-01  0.0000000000000000e+00 8.3103059597252071e-01 3.1465468321167872e-01  0.0000000000000000e+00 8.4619745619502973e-01 2.8750816132623008e-01  0.0000000000000000e+00 8.1390564222254946e-01 3.4478143548065210e-01  0.0000000000000000e+00 7.5467644258350630e-01 4.4504754618873199e-01  0.0000000000000000e+00 7.7726414193457360e-01 4.0752033851295716e-01  0.0000000000000000e+00 3.6212796477637255e-02 7.4801722981180341e-01  0.0000000000000000e+00 4.2660234968509639e-02 7.9067220361776014e-01  0.0000000000000000e+00 2.3813753846676056e-02 6.0038870418131995e-01  0.0000000000000000e+00 8.9962219732020079e-02 9.4688849493948435e-01  0.0000000000000000e+00 1.5016442527590571e-01 1.0085039893602989e+00  0.0000000000000000e+00 4.3464983987780877e-02 7.9693400476474674e-01  0.0000000000000000e+00 4.2620326023289029e-01 8.8576055431411616e-01  0.0000000000000000e+00 4.9537062943863452e-01 8.1125302934873222e-01  0.0000000000000000e+00 4.7126319442815434e-01 8.3853307701718172e-01  0.0000000000000000e+00 5.3784873982844150e-01 7.6011603721866172e-01  0.0000000000000000e+00 5.8150282973510614e-01 7.0362334449741526e-01  0.0000000000000000e+00 6.0220290126508569e-01 6.7555798107588516e-01  0.0000000000000000e+00 3.5993945704408636e-01 9.4513881282236667e-01  0.0000000000000000e+00 7.4939944171119033e-01 4.5369229120755034e-01  0.0000000000000000e+00 7.6798862951901115e-01 4.2303703604041432e-01  0.0000000000000000e+00 8.3167112040938418e-01 3.1351536635475469e-01  0.0000000000000000e+00 2.9298449075558147e-01 9.9081780325609969e-01  0.0000000000