<?xml version="1.0"?>
<VTKFile type="UnstructuredGrid"  version="0.1"  >
<UnstructuredGrid>
<Piece  NumberOfPoints="645" NumberOfCells="1208">
<Points>
<DataArray  type="Float64"  NumberOfComponents="3"  format="ascii">500 250 0  0 250 0  250 500 0  250 0 0  269.6147739849193 499.2293334291141 0  289.1086163645346 496.9220851322369 0  308.3613411380662 493.0924800576239 0  327.2542488153708 487.7641290017751 0  345.6708583410312 480.9698830243682 0  363.4976252268579 472.7516308983252 0  380.6246415053586 463.1600408885224 0  396.9463134355418 452.2542483304208 0  412.3620124901979 440.1014910518401 0  426.7766957038264 426.7766948894474 0  440.1014917275007 412.3620116991009 0  452.2542488669409 396.9463126970852 0  463.1600413033558 380.6246408284121 0  472.751631216677 363.4976246020575 0  480.9698832532689 345.6708577884161 0  487.7641291438106 327.2542483782306 0  493.0924801408104 308.3613407915692 0  496.9220851690424 289.1086161321545 0  499.2293334387019 269.6147738630947 0  499.229333430357 230.3852260308728 0  496.9220851356368 210.8913836569316 0  493.0924800663345 191.6386588982162 0  487.7641290184218 172.7457512358624 0  480.9698830399936 154.3291416966919 0  472.7516309070343 136.5023747902346 0  463.1600408987175 119.3753585112783 0  452.2542483410546 103.0536865790945 0  440.1014910714183 87.63798753272525 0  426.7766948943133 73.22330430103958 0  412.3620117009348 59.89850827406559 0  396.9463126913573 47.74575112889752 0  380.6246408261736 36.83995869527249 0  363.4976245953484 27.24836877990464 0  345.6708577827026 19.03011674436451 0  327.2542483716913 12.23587085406467 0  308.361340780398 6.907519856507577 0  289.1086161262194 3.077914830017676 0  269.6147738583604 0.7706665609254912 0  230.3852260302092 0.7706665696952655 0  210.8913836535466 3.077914864899299 0  191.6386589008631 6.907519933030017 0  172.7457512318028 12.23587098289721 0  154.3291416990867 19.03011695901438 0  136.5023748091553 27.24836908332517 0  119.3753585100802 36.83995910201668 0  103.0536865836863 47.74575165560921 0  87.6379875279894 59.89850893262656 0  73.22330429312285 73.2233051136034 0  59.89850825318987 87.6379883235075 0  47.74575112052588 103.0536873201654 0  36.83995867902311 119.375359200343 0  27.24836876726107 136.502375429466 0  19.03011674184958 154.3291422233689 0  12.23587084468659 172.7457516571714 0  6.90751985664113 191.6386592190457 0  3.07791483051173 210.8913838706611 0  0.7706665612319625 230.3852261377458 0  0.770666570878916 269.6147739848303 0  3.077914868063033 289.1086163664283 0  6.907519941211973 308.3613411332171 0  12.23587099861078 327.2542488165586 0  19.03011697319531 345.6708583351491 0  27.24836908997781 363.4976252039013 0  36.83995910945072 380.624641502051 0  47.74575166272689 396.9463134261104 0  59.89850895284744 412.3620124956862 0  73.223305118437 426.7766957117107 0  87.63798832904175 440.1014917515369 0  103.0536873198473 452.2542488792431 0  119.3753591950333 463.1600413177231 0  136.502375416904 472.7516312263383 0  154.3291422204512 480.9698832569418 0  172.7457516527922 487.7641291538905 0  191.6386592093489 493.0924801410308 0  210.891383865478 496.9220851686673 0  230.38522613373 499.229333438452 0  408.0297414380137 79.04438812052823 0  470.6929872351991 328.8394125533284 0  327.5791944935511 30.66901791634585 0  186.8066927430735 474.0665667617239 0  241.1725543363619 17.80467707257488 0  481.8957906849985 237.8895419164845 0  241.9028711997863 481.7677876757489 0  22.04240264610397 260.0195362144032 0  66.93524317993541 393.9967576354165 0  407.5748062742585 421.804202868455 0  91.14498776833713 78.15950434153694 0  443.5721620986452 120.6592159456753 0  47.90357490700103 137.2584608638679 0  121.9854148726425 53.89110248018969 0  346.0986346915193 460.9657062005573 0  37.15978683308909 348.686261000426 0  443.2617512614241 379.6653657108164 0  469.6395010170255 166.6128966790255 0  169.4214360799271 31.58224567687904 0  120.0926710183088 443.0188983543295 0  25.93343325113663 186.8066927541892 0  294.4711068775667 479.0497777351075 0  25.93343346326644 313.1933076022177 0  379.5895462631086 444.9259942605202 0  477.3836837079734 202.381284598844 0  91.97025859159305 420.9556118868529 0  201.8099842058005 21.62718472283686 0  378.9340731306958 56.62233582097542 0  452.9866090845981 363.3843712213892 0  433.7891058935094 362.712636160478 0  423.9473865733744 379.4564211535431 0  414.2436151024774 362.5677032958672 0  424.001708291139 345.6669244533275 0  404.4610922180836 345.5134771956895 0  414.341417486195 328.5773255591307 0  394.7677429029752 328.480795053565 0  404.6609853910698 311.5262601202149 0  385.031291303632 311.4357195826571 0  375.101270673993 328.3607598117625 0  365.3740866097247 311.3257829175604 0  355.5083459394236 328.2997490723603 0  345.7718933714782 311.2546684470915 0  335.8786468089485 328.2092240351425 0  326.1421942370671 311.1641433897183 0  336.003344415795 294.1838138923774 0  316.3860344407723 294.1066032295112 0  306.5124951000444 311.0736183338123 0  296.7501789069282 294.0121813369556 0  306.6515351153541 277.0655652779993 0  287.0395899630898 276.98345703061 0  296.9328365330605 260.0289014374702 0  277.2982248613483 259.9358158720167 0  267.3990712864435 276.8845676964974 0  257.6713884944854 259.8456251093223 0  267.5666848269919 242.8932957192846 0  247.9365419809313 242.8056592582466 0  238.0437391039621 259.7573262582974 0  257.8302322568193 225.8482150584726 0  238.2005331082895 225.757689997251 0  248.0937796848919 208.8031343943687 0  267.7234788341136 208.8936594571897 0  228.4640805329348 208.712609333587 0  257.9870262635756 191.8485787959149 0  394.9245487736064 294.4811717944075 0  277.6167254091284 191.9391038586934 0  267.8802728403858 174.8940232011079 0  287.5005584344734 175.0117093161379 0  277.7685743892544 157.9663496219783 0  258.1421294336732 157.8702099927723 0  268.0370668499073 140.8943869520292 0  248.4073677066822 140.803861887803 0  297.4032185518097 158.029992671988 0  307.1396711152761 175.0750733211352 0  317.0329176840529 158.1205177336628 0  326.7693702482894 175.1655983760161 0  336.6626168121476 158.2110427905018 0  346.3990693731281 175.2561234311168 0  326.9054332650823 141.220514475552 0  258.300614283603 123.8493062912708 0  238.6709151364965 123.7587812267517 0  345.602770870788 345.2345146507195 0  228.7776685563935 140.7133368276114 0  219.0412159824577 123.6682561607107 0  209.1548086869 140.6568288028854 0  199.4115168211257 123.5777310947873 0  189.5182702336654 140.5322867083881 0  414.5061001206328 294.5791962676446 0  404.8178099709576 277.5266248278496 0  179.7818176563396 123.4872060318257 0  169.8885710669681 140.4417616462852 0  356.2923159345929 158.3015678516131 0  366.0287684987967 175.3466484913704 0  356.1355219340599 192.3012040743702 0  375.7652210728186 192.3917291327877 0  209.3047634085723 106.6231754828329 0  365.8719745031602 209.3462847214261 0  385.4473336989289 209.4589172776483 0  325.9854002589402 345.1637796339881 0  335.7218528424219 362.2088602706556 0  316.0921537106989 362.1183352318304 0  325.8286062932657 379.163415866528 0  306.198907162322 379.0728908286862 0  296.4624545814172 362.0278101960448 0  286.5692080329665 378.982365791018 0  276.8327554515532 361.9372851563691 0  266.939508902649 378.8918407521974 0  257.2030563201347 361.8467601163857 0  247.3098097697766 378.8013157143188 0  237.5733571858447 361.7562350760078 0  227.6801106339195 378.7107906764817 0  217.943658048477 361.6657100354885 0  208.0504114944145 378.6202656389371 0  198.313958909151 361.5751849900388 0  257.046262353733 395.8463963506437 0  188.4207123491114 378.5297405967377 0  178.6942702061005 361.4572585380363 0  188.5775063311286 344.5301043308571 0  168.9825719925815 344.3679587423489 0  178.862757141982 327.4597476508416 0  159.2319047656242 327.3721603214715 0  169.1046011625246 310.4399430048529 0  149.4749020045267 310.3494179549329 0  159.3681485763936 293.3948623397931 0  139.7621343179957 293.2923655078865 0  149.6316959897331 276.3497816754953 0  130.001996832586 276.2592566257254 0  139.8952434039481 259.3047010132285 0  120.2655442487169 259.2141759632096 0  130.1587908193085 242.2596203521963 0  110.5290916658602 242.1690953021686 0  120.4223382355493 225.2145396926986 0  139.5816554329651 327.3039735703393 0  140.0520373886098 225.3050647418833 0  100.6358450969261 259.1236509112424 0  217.7868640819771 395.665346280658 0  168.7910131993309 378.4392155450739 0  178.5274657798013 395.4842962032838 0  90.89939251396862 242.0785702520503 0  120.1087502632246 293.2138122376823 0  198.4827020443107 327.560288315778 0  130.3155848042933 208.2599840821261 0  110.6858856511 208.169459032866 0  120.5791322200218 191.2149034219518 0  179.6250236464644 157.4868423201703 0  248.5641617155314 106.8042256262046 0  268.1938608640521 106.8947506897054 0  218.5708339532014 225.6671649402842 0  296.3097884844733 395.9656221920631 0  160.1521184905691 123.396680968142 0  170.0453650783119 106.4421253476802 0  385.658427623638 175.451920499978 0  81.00614594559451 259.0331258609116 0  101.0554053508192 191.1247040573367 0  110.8426796353596 174.1698227613512 0  258.4574082944565 89.84967002797657 0  278.0871074405096 89.94019509160398 0  345.4583054269535 379.2539409100921 0  335.5650588729622 396.2084965020994 0  71.26969336281471 241.9880452024695 0  316.8761236845766 192.1201539629169 0  316.5489845965977 260.1172740927201 0  247.4666037372683 344.8016794754746 0  169.261395148653 276.4403067246208 0  424.4475090085939 277.6171671056567 0  477.5061263880716 295.9860753924438 0  297.7010004405789 21.78753761157149 0  152.5329738481066 461.4223243306178 0  158.8977666313233 395.3937711508539 0  18.80645331331318 222.6364406178562 0  91.05618649809102 208.0789339835232 0  67.55529962754241 105.2642692875928 0  268.3506548722531 72.89511443289081 0  248.7209557265558 72.80458936723331 0  414.7110714038412 260.5720779140291 0  375.5311866215619 226.3973061791794 0  385.1881
[...]
<PointData  Vectors="f_12"> 
<DataArray  type="Float64"  Name="f_12"  NumberOfComponents="3" format="ascii">0.0000000000000000e+00 3.8255985075812593e-01 9.2625400220130893e-01  0.0000000000000000e+00 6.5586042798886290e-01 5.9903375543971626e-01  0.0000000000000000e+00 1.5288415692920120e-02 2.5995240912504525e-01  0.0000000000000000e+00 8.9775831673202711e-01 1.9132213111738133e-01  0.0000000000000000e+00 1.5296017591572611e-02 2.5505446692995376e-01  0.0000000000000000e+00 1.5295721998394528e-02 2.5581428449674676e-01  0.0000000000000000e+00 1.5283665801899464e-02 2.6301373271985828e-01  0.0000000000000000e+00 1.5296078541526266e-02 2.7763419227521557e-01  0.0000000000000000e+00 1.5380005284791850e-02 2.9835440159631155e-01  0.0000000000000000e+00 1.5576276250674828e-02 3.2373064108308908e-01  0.0000000000000000e+00 1.5944544587660182e-02 3.5445582820494864e-01  0.0000000000000000e+00 1.6663226419152924e-02 3.9687060426472770e-01  0.0000000000000000e+00 1.7956253710543289e-02 4.5136644557251621e-01  0.0000000000000000e+00 2.0065094005955943e-02 5.1458765393175421e-01  0.0000000000000000e+00 2.3603025746226570e-02 5.8930354352162218e-01  0.0000000000000000e+00 3.0162691942849748e-02 6.8140139003453848e-01  0.0000000000000000e+00 4.1626719864403791e-02 7.7751905170101843e-01  0.0000000000000000e+00 6.0933782629103317e-02 8.6957273380376909e-01  0.0000000000000000e+00 9.1296514258606132e-02 9.4596745584459840e-01  0.0000000000000000e+00 1.3455684501382620e-01 9.9718854051000305e-01  0.0000000000000000e+00 1.8963151202622866e-01 1.0177020258903091e+00  0.0000000000000000e+00 2.5204758748249617e-01 1.0082395901504089e+00  0.0000000000000000e+00 3.1983081702756982e-01 9.7415019936191072e-01  0.0000000000000000e+00 4.5133328511406950e-01 8.5987891026297092e-01  0.0000000000000000e+00 5.1140772402372559e-01 7.9234438720428246e-01  0.0000000000000000e+00 5.6908847588272360e-01 7.2001708862467839e-01  0.0000000000000000e+00 6.1956609860643430e-01 6.5141294191471510e-01  0.0000000000000000e+00 6.6507920732334957e-01 5.8543344210541337e-01  0.0000000000000000e+00 7.0448688810047388e-01 5.2537517598149708e-01  0.0000000000000000e+00 7.3837731043580057e-01 4.7160764597168858e-01  0.0000000000000000e+00 7.6796015732210399e-01 4.2309244495622156e-01  0.0000000000000000e+00 7.9445221697723023e-01 3.7840466373924869e-01  0.0000000000000000e+00 8.1482419351770397e-01 3.4318298146170056e-01  0.0000000000000000e+00 8.3267259855391007e-01 3.1175810126426107e-01  0.0000000000000000e+00 8.4806252018191297e-01 2.8415133866499048e-01  0.0000000000000000e+00 8.6011069516321659e-01 2.6221970386075649e-01  0.0000000000000000e+00 8.7082425963029464e-01 2.4243948016047692e-01  0.0000000000000000e+00 8.7946716267038194e-01 2.2628887508334594e-01  0.0000000000000000e+00 8.8531365957570829e-01 2.1522284183922233e-01  0.0000000000000000e+00 8.8992841597992400e-01 2.0641214109332959e-01  0.0000000000000000e+00 8.9428435144229901e-01 1.9805226072880008e-01  0.0000000000000000e+00 8.9759212090873364e-01 1.9166602357330040e-01  0.0000000000000000e+00 8.9863301523504080e-01 1.8963132510435726e-01  0.0000000000000000e+00 8.9773793124574564e-01 1.9136711398795425e-01  0.0000000000000000e+00 8.9573127131515384e-01 1.9524692160358326e-01  0.0000000000000000e+00 8.9346134647150777e-01 1.9963545839181937e-01  0.0000000000000000e+00 8.9005501440600621e-01 2.0617932895414368e-01  0.0000000000000000e+00 8.8529152270769418e-01 2.1525600992680205e-01  0.0000000000000000e+00 8.8028282788732870e-01 2.2474360240464492e-01  0.0000000000000000e+00 8.7402369615364495e-01 2.3648825098227536e-01  0.0000000000000000e+00 8.6585749482665497e-01 2.5164456542657687e-01  0.0000000000000000e+00 8.5693457357858138e-01 2.6803190015346345e-01  0.0000000000000000e+00 8.4761536212646205e-01 2.8496942722916463e-01  0.0000000000000000e+00 8.3622654587672540e-01 3.0542854067256681e-01  0.0000000000000000e+00 8.2267552159130408e-01 3.2942769752984052e-01  0.0000000000000000e+00 8.0811838045543627e-01 3.5488375691745111e-01  0.0000000000000000e+00 7.9045380976796209e-01 3.8520687230954781e-01  0.0000000000000000e+00 7.7043279731018866e-01 4.1895869308451383e-01  0.0000000000000000e+00 7.4849470536932339e-01 4.5514659863507445e-01  0.0000000000000000e+00 7.2256407268702394e-01 4.9691920117401767e-01  0.0000000000000000e+00 6.9099510983227308e-01 5.4620253253103379e-01  0.0000000000000000e+00 6.1871771156543587e-01 6.5258091398575979e-01  0.0000000000000000e+00 5.6984674403063251e-01 7.1902798785820488e-01  0.0000000000000000e+00 5.1657446087792247e-01 7.8605890748518936e-01  0.0000000000000000e+00 4.5648281132571311e-01 8.5453034214847701e-01  0.0000000000000000e+00 3.8839528507508381e-01 9.2090419614679664e-01  0.0000000000000000e+00 3.1761194036977214e-01 9.7558858307661667e-01  0.0000000000000000e+00 2.4417949637104067e-01 1.0113175943539807e+00  0.0000000000000000e+00 1.7605844861763967e-01 1.0164454586989464e+00  0.0000000000000000e+00 1.1567211387310060e-01 9.8098101494465650e-01  0.0000000000000000e+00 7.1717393078279956e-02 9.0473733242770604e-01  0.0000000000000000e+00 4.4806743794430219e-02 7.9858114861627794e-01  0.0000000000000000e+00 3.0110942011604181e-02 6.8186261832912154e-01  0.0000000000000000e+00 2.2423204711666134e-02 5.6907715885041577e-01  0.0000000000000000e+00 1.8976066061569388e-02 4.8486906048633471e-01  0.0000000000000000e+00 1.6868383506972569e-02 4.0694909704122378e-01  0.0000000000000000e+00 1.5964248398013654e-02 3.5647685403130475e-01  0.0000000000000000e+00 1.5533048290205699e-02 3.1934866940275414e-01  0.0000000000000000e+00 1.5342636694834611e-02 2.9134822934432275e-01  0.0000000000000000e+00 1.5281875815282080e-02 2.7231752691457345e-01  0.0000000000000000e+00 8.1945652727867713e-01 3.3507012201716263e-01  0.0000000000000000e+00 1.2167698360332234e-01 9.8603707643105165e-01  0.0000000000000000e+00 8.7763302980390567e-01 2.2968063927356180e-01  0.0000000000000000e+00 1.5875389429501553e-02 3.4923079536811807e-01  0.0000000000000000e+00 8.9171368392073758e-01 2.0293543360787406e-01  0.0000000000000000e+00 4.3313266511825760e-01 8.7822750151942552e-01  0.0000000000000000e+00 1.5295281554445716e-02 2.7754245825983115e-01  0.0000000000000000e+00 6.2446035994655025e-01 6.4438301969219813e-01  0.0000000000000000e+00 1.4788548120754205e-01 1.0065458895966710e+00  0.0000000000000000e+00 1.9312693982401544e-02 4.9389367761659175e-01  0.0000000000000000e+00 8.5603408305237649e-01 2.6965491213659665e-01  0.0000000000000000e+00 7.5096721373868291e-01 4.5114507382069896e-01  0.0000000000000000e+00 8.0666189873013361e-01 3.5738561271281782e-01  0.0000000000000000e+00 8.7267020502119652e-01 2.3897503725620267e-01  0.0000000000000000e+00 1.5559492745881085e-02 3.2236414434506727e-01  0.0000000000000000e+00 3.5008873905443988e-01 9.5224139752549974e-01  0.0000000000000000e+00 3.6789818651987730e-02 7.4374319877703954e-01  0.0000000000000000e+00 6.4803244090965539e-01 6.1058959361823117e-01  0.0000000000000000e+00 8.8573976961982936e-01 2.1437663986880062e-01  0.0000000000000000e+00 2.6992720652591447e-02 6.4220260735906143e-01  0.0000000000000000e+00 7.5250399647960953e-01 4.4861381881936729e-01  0.0000000000000000e+00 1.5285030932259816e-02 2.6930930828717353e-01  0.0000000000000000e+00 4.8173352239871120e-01 8.2680203361968563e-01  0.0000000000000000e+00 1.6438723778819376e-02 3.8495980464738078e-01  0.0000000000000000e+00 5.4903531218930579e-01 7.4605825983162533e-01  0.0000000000000000e+00 5.8698984270492728e-02 8.6229464507289666e-01  0.0000000000000000e+00 8.9065049018241838e-01 2.0497732470490201e-01  0.0000000000000000e+00 8.4920695745709573e-01 2.8207807538913493e-01  0.0000000000000000e+00 5.3192981832450539e-02 8.3984426366961784e-01  0.0000000000000000e+00 5.3109045654796239e-02 8.4096764676443458e-01  0.0000000000000000e+00 3.5525217988628385e-02 7.3521990322968744e-01  0.0000000000000000e+00 5.8001016664380275e-02 8.6343662831239554e-01  0.0000000000000000e+00 9.1008265150333195e-02 9.4891328007086784e-01  0.0000000000000000e+00 1.0913503267208184e-01 9.7667478118583662e-01  0.0000000000000000e+00 1.6013327683356918e-01 1.0137984520048333e+00  0.0000000000000000e+00 1.8612946440819023e-01 1.0193766419255952e+00  0.0000000000000000e+00 2.4445880317300089e-01 1.0120757635695625e+00  0.0000000000000000e+00 2.6883382980336867e-01 1.0027269369483640e+00  0.0000000000000000e+00 2.0814461780572813e-01 1.0191974503085186e+00  0.0000000000000000e+00 2.8953629522212138e-01 9.9262418257874774e-01  0.0000000000000000e+00 2.2645777155071614e-01 1.0165270150525842e+00  0.0000000000000000e+00 3.0712708358078344e-01 9.8255043624186233e-01  0.0000000000000000e+00 2.4283714824979571e-01 1.0124001068784827e+00  0.0000000000000000e+00 3.2184494948935788e-01 9.7313316602348332e-01  0.0000000000000000e+00 3.8356886602267454e-01 9.2545763485771793e-01  0.0000000000000000e+00 3.9662005613208196e-01 9.1383697879459247e-01  0.0000000000000000e+00 3.3377036790954240e-01 9.6491438657587147e-01  0.0000000000000000e+00 4.0723728451027291e-01 9.0402360128023407e-01  0.0000000000000000e+00 4.6446960792364561e-01 8.4592038940162328e-01  0.0000000000000000e+00 4.7284998056877481e-01 8.3672642247130269e-01  0.0000000000000000e+00 5.2559566411236780e-01 7.7525038901281562e-01  0.0000000000000000e+00 5.3274509785130497e-01 7.6644996124240194e-01  0.0000000000000000e+00 4.7960255626811138e-01 8.2920188348073753e-01  0.0000000000000000e+00 5.3836499859422549e-01 7.5945520211854989e-01  0.0000000000000000e+00 5.8455293907147354e-01 6.9954165578346217e-01  0.0000000000000000e+00 5.8886288448182422e-01 6.9373818035080737e-01  0.0000000000000000e+00 5.4283385972494047e-01 7.5384614799273608e-01  0.0000000000000000e+00 6.3093924615184416e-01 6.3527008155207776e-01  0.0000000000000000e+00 6.3453911539507357e-01 6.3011490328182496e-01  0.0000000000000000e+00 6.7113761838828578e-01 5.7637375144673142e-01  0.0000000000000000e+00 6.6771362497096276e-01 5.8150243478442243e-01  0.0000000000000000e+00 6.7382447791125200e-01 5.7233503657773610e-01  0.0000000000000000e+00 7.0340300683124690e-01 5.2706801648191237e-01  0.0000000000000000e+00 3.2754066774084722e-01 9.6930099995697183e-01  0.0000000000000000e+00 6.9973165968511375e-01 5.3276769272442193e-01  0.0000000000000000e+00 7.3266606381211108e-01 4.8080741554538492e-01  0.0000000000000000e+00 7.2894933365242065e-01 4.8676508992822493e-01  0.0000000000000000e+00 7.5725044186765267e-01 4.4081823266435805e-01  0.0000000000000000e+00 7.6011825063195726e-01 4.3608824123427703e-01  0.0000000000000000e+00 7.8294921776084181e-01 3.9794367921726648e-01  0.0000000000000000e+00 7.8529813254471914e-01 3.9396839910963777e-01  0.0000000000000000e+00 7.5364782637822980e-01 4.4674085672343394e-01  0.0000000000000000e+00 7.2425585108683299e-01 4.9425473403819720e-01  0.0000000000000000e+00 7.4907886812148206e-01 4.5422152070676330e-01  0.0000000000000000e+00 7.1826049644940337e-01 5.0376653884073830e-01  0.0000000000000000e+00 7.4340092682014558e-01 4.6347057832593419e-01  0.0000000000000000e+00 7.1085228543550827e-01 5.1543419450128469e-01  0.0000000000000000e+00 7.7103680210795389e-01 4.1795670849053157e-01  0.0000000000000000e+00 8.0489012527629578e-01 3.6043664875313419e-01  0.0000000000000000e+00 8.0663429677422338e-01 3.5741902547848792e-01  0.0000000000000000e+00 1.6596812442169842e-01 1.0151282950575322e+00  0.0000000000000000e+00 7.8707556342839768e-01 3.9095390025273552e-01  0.0000000000000000e+00 8.0793437244056365e-01 3.5516640066240596e-01  0.0000000000000000e+00 7.8839643820138772e-01 3.8870989655699861e-01  0.0000000000000000e+00 8.0891156529501596e-01 3.5347108884903544e-01  0.0000000000000000e+00 7.8952712207786468e-01 3.8678648897655687e-01  0.0000000000000000e+00 3.0263860223214095e-01 9.8535770939908562e-01  0.0000000000000000e+00 3.8323789482639908e-01 9.2577106245772023e-01  0.0000000000000000e+00 8.0972899539066390e-01 3.5205154884951650e-01  0.0000000000000000e+00 7.9051184030453259e-01 3.8510963261391518e-01  0.0000000000000000e+00 7.3643336674594184e-01 4.7474696869613209e-01  0.0000000000000000e+00 7.0192673090663915e-01 5.2936621650902405e-01  0.0000000000000000e+00 6.7346482857741852e-01 5.7288112479717779e-01  0.0000000000000000e+00 6.6307296590525266e-01 5.8842696500369429e-01  0.0000000000000000e+00 8.2644885358647857e-01 3.2276869795364260e-01  0.0000000000000000e+00 6.3033119080808975e-01 6.3614361741239589e-01  0.0000000000000000e+00 6.1707485920517069e-01 6.5490840823940144e-01  0.0000000000000000e+00 1.7912334637848434e-01 1.0181817279324166e+00  0.0000000000000000e+00 1.1009659409509157e-01 9.7714172820907863e-01  0.0000000000000000e+00 1.2057799696767961e-01 9.8816299838589350e-01  0.0000000000000000e+00 6.6540493175519133e-02 8.9433965262453352e-01  0.0000000000000000e+00 7.3640597073615310e-02 9.1325561863241156e-01  0.0000000000000000e+00 1.2960836940688705e-01 9.9609188365899315e-01  0.0000000000000000e+00 7.9342956350770238e-02 9.2648576741083133e-01  0.0000000000000000e+00 1.3734116489311313e-01 1.0017879580713764e+00  0.0000000000000000e+00 8.4397456075039845e-02 9.3702385822280421e-01  0.0000000000000000e+00 1.4406434202741236e-01 1.0059284005021421e+00  0.0000000000000000e+00 8.9293695755305866e-02 9.4623307729761397e-01  0.0000000000000000e+00 1.5014518364471230e-01 1.0090669852340000e+00  0.0000000000000000e+00 9.4253918746165108e-02 9.5463828405928131e-01  0.0000000000000000e+00 1.5608420925723754e-01 1.0116543677782037e+00  0.0000000000000000e+00 9.9409031092076466e-02 9.6258259586719919e-01  0.0000000000000000e+00 1.6247166950494824e-01 1.0139511184706040e+00  0.0000000000000000e+00 4.8742658090282859e-02 8.2577882531044755e-01  0.0000000000000000e+00 1.0541108218036924e-01 9.7090192151958632e-01  0.0000000000000000e+00 1.6990930825567060e-01 1.0160406852119432e+00  0.0000000000000000e+00 2.3454321731368130e-01 1.0145855330511817e+00  0.0000000000000000e+00 2.4275262438959236e-01 1.0122726896309540e+00  0.0000000000000000e+00 3.0965630239804537e-01 9.8089262432530133e-01  0.0000000000000000e+00 3.1741167118935892e-01 9.7594369968699668e-01  0.0000000000000000e+00 3.8083580476561607e-01 9.2776500731843192e-01  0.0000000000000000e+00 3.8856387976109741e-01 9.2100217412564611e-01  0.0000000000000000e+00 4.4778156796240209e-01 8.6368890493557715e-01  0.0000000000000000e+00 4.5482480270615688e-01 8.5624433786917831e-01  0.0000000000000000e+00 5.0757005751464068e-01 7.9692376668871923e-01  0.0000000000000000e+00 5.1436750684563470e-01 7.8881803259594063e-01  0.0000000000000000e+00 5.6219519219356207e-01 7.2905512230426450e-01  0.0000000000000000e+00 5.6823025230918423e-01 7.2117411298492129e-01  0.0000000000000000e+00 6.0933950886962829e-01 6.6568148519721215e-01  0.0000000000000000e+00 6.1512845071337841e-01 6.5760872377122859e-01  0.0000000000000000e+00 6.5251739431578992e-01 6.0400429386383092e-01  0.0000000000000000e+00 3.2678826197534000e-01 9.6967385132407513e-01  0.0000000000000000e+00 6.4838902016241085e-01 6.1005249035962816e-01  0.0000000000000000e+00 5.7581532058779439e-01 7.1117102997037607e-01  0.0000000000000000e+00 5.5179087008440111e-02 8.5433461767674546e-01  0.0000000000000000e+00 1.1297715707145947e-01 9.8006262748084427e-01  0.0000000000000000e+00 6.2826557795752386e-02 8.8224249322411319e-01  0.0000000000000000e+00 6.2248743096933512e-01 6.4725831650634158e-01  0.0000000000000000e+00 4.6352663438032349e-01 8.4688851701792767e-01  0.0000000000000000e+00 3.0308046899698832e-01 9.8489852585745241e-01  0.0000000000000000e+00 6.8523318879726336e-01 5.5504432375455448e-01  0.0000000000000000e+00 6.8899335684846319e-01 5.4929758565587361e-01  0.0000000000000000e+00 7.1898698354891644e-01 5.0261059250888140e-01  0.0000000000000000e+00 7.6663416852826471e-01 4.2529048076063847e-01  0.0000000000000000e+00 8.2393978789558564e-01 3.2719487126516189e-01  0.0000000000000000e+00 8.2207591990373474e-01 3.3047579717332148e-01  0.0000000000000000e+00 6.3744073946163082e-01 6.2594157661692751e-01  0.0000000000000000e+00 4.1955428961991149e-02 7.8893720776987086e-01  0.0000000000000000e+00 8.1049197678945906e-01 3.5072554159567032e-01  0.0000000000000000e+00 8.2800767050595836e-01 3.2001279268451638e-01  0.0000000000000000e+00 6.9144197772807814e-01 5.4555826245695427e-01  0.0000000000000000e+00 5.8519642928924542e-01 6.9864652659495008e-01  0.0000000000000000e+00 7.2258535179988514e-01 4.9690238959128674e-01  0.0000000000000000e+00 7.4780842548918658e-01 4.5629003397308748e-01  0.0000000000000000e+00 8.3988401324792539e-01 2.9886669385536652e-01  0.0000000000000000e+00 8.3783584265332378e-01 3.0253239146372451e-01  0.0000000000000000e+00 5.8071595802959619e-02 8.6681936952891248e-01  0.0000000000000000e+00 3.3623508409192794e-02 7.2655242717746216e-01  0.0000000000000000e+00 6.3160974490807853e-01 6.3429062652935375e-01  0.0000000000000000e+00 6.8923232213402275e-01 5.4894198558549656e-01  0.0000000000000000e+00 5.1660125896260023e-01 7.8616670840290737e-01  0.0000000000000000e+00 2.1532025901842167e-01 1.0183850399967722e+00  0.0000000000000000e+00 5.0217182010847727e-01 8.0329030504542154e-01  0.0000000000000000e+00 3.5710637739193940e-01 9.4755058775825696e-01  0.0000000000000000e+00 2.2139133054080823e-01 1.0167724748990943e+00  0.0000000000000000e+00 8.8587608932942130e-01 2.1410703307186124e-01  0.0000000000000000e+00 1.8171965069991348e-02 4.5895499911951115e-01  0.0000000000000000e+00 6.8600426289957425e-02 8.9973376037301622e-01  0.0000000000000000e+00 6.9976062262920868e-01 5.3276481314764979e-01  0.0000000000000000e+00 6.9389998027245936e-01 5.4176412136808372e-01  0.0000000000000000e+00 8.3574941477361420e-01 3.0625896906009487e-01  0.0000000000000000e+00 8.5332594539635187e-01 2.7458585927344731e-01  0.0000000000000000e+00 8.5438377913593888e-01 2.7265663816485680e-01  0.0000000000000000e+00 4.3562052832264614e-01 8.7630554381351367e-01  0.0000000000000000e+00 5.8025737587281689e-01 7.0530202037160139e-01  0.0000000000000000e+00 4.0561282407612181e-01 9.0557264675243032e-01  0.0000000000000000e+00 8.1964301946508933e-01 3.3474869394903983e-01  0.0000000000000000e+00 8.3536412334193866e-01 3.0694721216578330e-01  0.0000000000000000e+00 1.2259138623750904e-01 9.8986540158405412e-01  0.0000000000000000e+00 6.8233578718183341e-01 5.5945654594219596e-01  0.0000000000000000e+00 6.7601761075387390e-01 5.6902856812557479e-01  0.0000000000000000e+00 6.4511914438753748e-01 6.1482126426050898e-01  0.0000000000000000e+00 8.2868456892021647e-01 3.1881336235839586e-01  0.0000000000000000e+00 8.4437143671447357e-01 2.9080195803107872e-01  0.0000000000000000e+00 8.1140990999351226e-01 3.4912899518994445e-01  0.0000000000000000e+00 7.5102399819147125e-01 4.5103689170595651e-01  0.0000000000000000e+00 7.7383626173717701e-01 4.1327115076443333e-01  0.0000000000000000e+00 2.9993675049855697e-02 6.8797069658592547e-01  0.0000000000000000e+00 3.7224683955181623e-02 7.5132243688054767e-01  0.0000000000000000e+00 2.1280615373355034e-02 5.4771348692542432e-01  0.0000000000000000e+00 7.6397315976239444e-02 9.1949647319369987e-01  0.0000000000000000e+00 1.3430762523222395e-01 9.9936028301110003e-01  0.0000000000000000e+00 3.6006439146423631e-02 7.4537997320127591e-01  0.0000000000000000e+00 4.0957765498430371e-01 9.0191681598164608e-01  0.0000000000000000e+00 4.8211357057126214e-01 8.2642265293264727e-01  0.0000000000000000e+00 4.5613951688055060e-01 8.5496975498626049e-01  0.0000000000000000e+00 5.2560125491913767e-01 7.7527925137906817e-01  0.0000000000000000e+00 5.7216924932193636e-01 7.1602055948963383e-01  0.0000000000000000e+00 5.9317015713450516e-01 6.8791016448298947e-01  0.0000000000000000e+00 3.4343317232585863e-01 9.5789046553792556e-01  0.0000000000000000e+00 7.4547500370699993e-01 4.6009306779262699e-01  0.0000000000000000e+00 7.6407400607351139e-01 4.2954123138013856e-01  0.0000000000000000e+00 8.2938499836544588e-01 3.1757070659642800e-01  0.0000000000000000e+00 2.7189017277428662e-01 1.0014945992204347e+00  0.0000000000