<?xml version="1.0"?>
<VTKFile type="UnstructuredGrid"  version="0.1"  >
<UnstructuredGrid>
<Piece  NumberOfPoints="645" NumberOfCells="1208">
<Points>
<DataArray  type="Float64"  NumberOfComponents="3"  format="ascii">500 250 0  0 250 0  250 500 0  250 0 0  269.6147739849193 499.2293334291141 0  289.1086163645346 496.9220851322369 0  308.3613411380662 493.0924800576239 0  327.2542488153708 487.7641290017751 0  345.6708583410312 480.9698830243682 0  363.4976252268579 472.7516308983252 0  380.6246415053586 463.1600408885224 0  396.9463134355418 452.2542483304208 0  412.3620124901979 440.1014910518401 0  426.7766957038264 426.7766948894474 0  440.1014917275007 412.3620116991009 0  452.2542488669409 396.9463126970852 0  463.1600413033558 380.6246408284121 0  472.751631216677 363.4976246020575 0  480.9698832532689 345.6708577884161 0  487.7641291438106 327.2542483782306 0  493.0924801408104 308.3613407915692 0  496.9220851690424 289.1086161321545 0  499.2293334387019 269.6147738630947 0  499.229333430357 230.3852260308728 0  496.9220851356368 210.8913836569316 0  493.0924800663345 191.6386588982162 0  487.7641290184218 172.7457512358624 0  480.9698830399936 154.3291416966919 0  472.7516309070343 136.5023747902346 0  463.1600408987175 119.3753585112783 0  452.2542483410546 103.0536865790945 0  440.1014910714183 87.63798753272525 0  426.7766948943133 73.22330430103958 0  412.3620117009348 59.89850827406559 0  396.9463126913573 47.74575112889752 0  380.6246408261736 36.83995869527249 0  363.4976245953484 27.24836877990464 0  345.6708577827026 19.03011674436451 0  327.2542483716913 12.23587085406467 0  308.361340780398 6.907519856507577 0  289.1086161262194 3.077914830017676 0  269.6147738583604 0.7706665609254912 0  230.3852260302092 0.7706665696952655 0  210.8913836535466 3.077914864899299 0  191.6386589008631 6.907519933030017 0  172.7457512318028 12.23587098289721 0  154.3291416990867 19.03011695901438 0  136.5023748091553 27.24836908332517 0  119.3753585100802 36.83995910201668 0  103.0536865836863 47.74575165560921 0  87.6379875279894 59.89850893262656 0  73.22330429312285 73.2233051136034 0  59.89850825318987 87.6379883235075 0  47.74575112052588 103.0536873201654 0  36.83995867902311 119.375359200343 0  27.24836876726107 136.502375429466 0  19.03011674184958 154.3291422233689 0  12.23587084468659 172.7457516571714 0  6.90751985664113 191.6386592190457 0  3.07791483051173 210.8913838706611 0  0.7706665612319625 230.3852261377458 0  0.770666570878916 269.6147739848303 0  3.077914868063033 289.1086163664283 0  6.907519941211973 308.3613411332171 0  12.23587099861078 327.2542488165586 0  19.03011697319531 345.6708583351491 0  27.24836908997781 363.4976252039013 0  36.83995910945072 380.624641502051 0  47.74575166272689 396.9463134261104 0  59.89850895284744 412.3620124956862 0  73.223305118437 426.7766957117107 0  87.63798832904175 440.1014917515369 0  103.0536873198473 452.2542488792431 0  119.3753591950333 463.1600413177231 0  136.502375416904 472.7516312263383 0  154.3291422204512 480.9698832569418 0  172.7457516527922 487.7641291538905 0  191.6386592093489 493.0924801410308 0  210.891383865478 496.9220851686673 0  230.38522613373 499.229333438452 0  408.0297414380137 79.04438812052823 0  470.6929872351991 328.8394125533284 0  327.5791944935511 30.66901791634585 0  186.8066927430735 474.0665667617239 0  241.1725543363619 17.80467707257488 0  481.8957906849985 237.8895419164845 0  241.9028711997863 481.7677876757489 0  22.04240264610397 260.0195362144032 0  66.93524317993541 393.9967576354165 0  407.5748062742585 421.804202868455 0  91.14498776833713 78.15950434153694 0  443.5721620986452 120.6592159456753 0  47.90357490700103 137.2584608638679 0  121.9854148726425 53.89110248018969 0  346.0986346915193 460.9657062005573 0  37.15978683308909 348.686261000426 0  443.2617512614241 379.6653657108164 0  469.6395010170255 166.6128966790255 0  169.4214360799271 31.58224567687904 0  120.0926710183088 443.0188983543295 0  25.93343325113663 186.8066927541892 0  294.4711068775667 479.0497777351075 0  25.93343346326644 313.1933076022177 0  379.5895462631086 444.9259942605202 0  477.3836837079734 202.381284598844 0  91.97025859159305 420.9556118868529 0  201.8099842058005 21.62718472283686 0  378.9340731306958 56.62233582097542 0  452.9866090845981 363.3843712213892 0  433.7891058935094 362.712636160478 0  423.9473865733744 379.4564211535431 0  414.2436151024774 362.5677032958672 0  424.001708291139 345.6669244533275 0  404.4610922180836 345.5134771956895 0  414.341417486195 328.5773255591307 0  394.7677429029752 328.480795053565 0  404.6609853910698 311.5262601202149 0  385.031291303632 311.4357195826571 0  375.101270673993 328.3607598117625 0  365.3740866097247 311.3257829175604 0  355.5083459394236 328.2997490723603 0  345.7718933714782 311.2546684470915 0  335.8786468089485 328.2092240351425 0  326.1421942370671 311.1641433897183 0  336.003344415795 294.1838138923774 0  316.3860344407723 294.1066032295112 0  306.5124951000444 311.0736183338123 0  296.7501789069282 294.0121813369556 0  306.6515351153541 277.0655652779993 0  287.0395899630898 276.98345703061 0  296.9328365330605 260.0289014374702 0  277.2982248613483 259.9358158720167 0  267.3990712864435 276.8845676964974 0  257.6713884944854 259.8456251093223 0  267.5666848269919 242.8932957192846 0  247.9365419809313 242.8056592582466 0  238.0437391039621 259.7573262582974 0  257.8302322568193 225.8482150584726 0  238.2005331082895 225.757689997251 0  248.0937796848919 208.8031343943687 0  267.7234788341136 208.8936594571897 0  228.4640805329348 208.712609333587 0  257.9870262635756 191.8485787959149 0  394.9245487736064 294.4811717944075 0  277.6167254091284 191.9391038586934 0  267.8802728403858 174.8940232011079 0  287.5005584344734 175.0117093161379 0  277.7685743892544 157.9663496219783 0  258.1421294336732 157.8702099927723 0  268.0370668499073 140.8943869520292 0  248.4073677066822 140.803861887803 0  297.4032185518097 158.029992671988 0  307.1396711152761 175.0750733211352 0  317.0329176840529 158.1205177336628 0  326.7693702482894 175.1655983760161 0  336.6626168121476 158.2110427905018 0  346.3990693731281 175.2561234311168 0  326.9054332650823 141.220514475552 0  258.300614283603 123.8493062912708 0  238.6709151364965 123.7587812267517 0  345.602770870788 345.2345146507195 0  228.7776685563935 140.7133368276114 0  219.0412159824577 123.6682561607107 0  209.1548086869 140.6568288028854 0  199.4115168211257 123.5777310947873 0  189.5182702336654 140.5322867083881 0  414.5061001206328 294.5791962676446 0  404.8178099709576 277.5266248278496 0  179.7818176563396 123.4872060318257 0  169.8885710669681 140.4417616462852 0  356.2923159345929 158.3015678516131 0  366.0287684987967 175.3466484913704 0  356.1355219340599 192.3012040743702 0  375.7652210728186 192.3917291327877 0  209.3047634085723 106.6231754828329 0  365.8719745031602 209.3462847214261 0  385.4473336989289 209.4589172776483 0  325.9854002589402 345.1637796339881 0  335.7218528424219 362.2088602706556 0  316.0921537106989 362.1183352318304 0  325.8286062932657 379.163415866528 0  306.198907162322 379.0728908286862 0  296.4624545814172 362.0278101960448 0  286.5692080329665 378.982365791018 0  276.8327554515532 361.9372851563691 0  266.939508902649 378.8918407521974 0  257.2030563201347 361.8467601163857 0  247.3098097697766 378.8013157143188 0  237.5733571858447 361.7562350760078 0  227.6801106339195 378.7107906764817 0  217.943658048477 361.6657100354885 0  208.0504114944145 378.6202656389371 0  198.313958909151 361.5751849900388 0  257.046262353733 395.8463963506437 0  188.4207123491114 378.5297405967377 0  178.6942702061005 361.4572585380363 0  188.5775063311286 344.5301043308571 0  168.9825719925815 344.3679587423489 0  178.862757141982 327.4597476508416 0  159.2319047656242 327.3721603214715 0  169.1046011625246 310.4399430048529 0  149.4749020045267 310.3494179549329 0  159.3681485763936 293.3948623397931 0  139.7621343179957 293.2923655078865 0  149.6316959897331 276.3497816754953 0  130.001996832586 276.2592566257254 0  139.8952434039481 259.3047010132285 0  120.2655442487169 259.2141759632096 0  130.1587908193085 242.2596203521963 0  110.5290916658602 242.1690953021686 0  120.4223382355493 225.2145396926986 0  139.5816554329651 327.3039735703393 0  140.0520373886098 225.3050647418833 0  100.6358450969261 259.1236509112424 0  217.7868640819771 395.665346280658 0  168.7910131993309 378.4392155450739 0  178.5274657798013 395.4842962032838 0  90.89939251396862 242.0785702520503 0  120.1087502632246 293.2138122376823 0  198.4827020443107 327.560288315778 0  130.3155848042933 208.2599840821261 0  110.6858856511 208.169459032866 0  120.5791322200218 191.2149034219518 0  179.6250236464644 157.4868423201703 0  248.5641617155314 106.8042256262046 0  268.1938608640521 106.8947506897054 0  218.5708339532014 225.6671649402842 0  296.3097884844733 395.9656221920631 0  160.1521184905691 123.396680968142 0  170.0453650783119 106.4421253476802 0  385.658427623638 175.451920499978 0  81.00614594559451 259.0331258609116 0  101.0554053508192 191.1247040573367 0  110.8426796353596 174.1698227613512 0  258.4574082944565 89.84967002797657 0  278.0871074405096 89.94019509160398 0  345.4583054269535 379.2539409100921 0  335.5650588729622 396.2084965020994 0  71.26969336281471 241.9880452024695 0  316.8761236845766 192.1201539629169 0  316.5489845965977 260.1172740927201 0  247.4666037372683 344.8016794754746 0  169.261395148653 276.4403067246208 0  424.4475090085939 277.6171671056567 0  477.5061263880716 295.9860753924438 0  297.7010004405789 21.78753761157149 0  152.5329738481066 461.4223243306178 0  158.8977666313233 395.3937711508539 0  18.80645331331318 222.6364406178562 0  91.05618649809102 208.0789339835232 0  67.55529962754241 105.2642692875928 0  268.3506548722531 72.89511443289081 0  248.7209557265558 72.80458936723331 0  414.7110714038412 260.5720779140291 0  375.5311866215619 226.3973061791794 0  385.1881
[...]
<PointData  Vectors="f_12"> 
<DataArray  type="Float64"  Name="f_12"  NumberOfComponents="3" format="ascii">0.0000000000000000e+00 4.1179050711230480e-01 8.9987207193517249e-01  0.0000000000000000e+00 6.7313262977573929e-01 5.7332940199115900e-01  0.0000000000000000e+00 1.5351790058536477e-02 2.3878897362761084e-01  0.0000000000000000e+00 8.9993660672678411e-01 1.8706066117070885e-01  0.0000000000000000e+00 1.5365918179119389e-02 2.3611409394723881e-01  0.0000000000000000e+00 1.5376949352115005e-02 2.3603874972330835e-01  0.0000000000000000e+00 1.5347292430662893e-02 2.4299287366831651e-01  0.0000000000000000e+00 1.5303433810052048e-02 2.5735620066224829e-01  0.0000000000000000e+00 1.5292556400844216e-02 2.7722836892322972e-01  0.0000000000000000e+00 1.5419418578045253e-02 3.0339347633786906e-01  0.0000000000000000e+00 1.5751721261955572e-02 3.3789994806873430e-01  0.0000000000000000e+00 1.6438118598248355e-02 3.8392856396550384e-01  0.0000000000000000e+00 1.7662054389154719e-02 4.3982707662730486e-01  0.0000000000000000e+00 1.9798350640799059e-02 5.0744386589028179e-01  0.0000000000000000e+00 2.3688596734950940e-02 5.9058744823398612e-01  0.0000000000000000e+00 3.0705503374790753e-02 6.8706331788553288e-01  0.0000000000000000e+00 4.3456456559715695e-02 7.8910313796957798e-01  0.0000000000000000e+00 6.5603735141053068e-02 8.8567409728904856e-01  0.0000000000000000e+00 1.0050486324451448e-01 9.6160153316449615e-01  0.0000000000000000e+00 1.5065934632034761e-01 1.0070513866374105e+00  0.0000000000000000e+00 2.0895292662578849e-01 1.0181912383774849e+00  0.0000000000000000e+00 2.7745510486457464e-01 9.9753359559218113e-01  0.0000000000000000e+00 3.4218883624306395e-01 9.5901062540792015e-01  0.0000000000000000e+00 4.7914439173974127e-01 8.2964114544076362e-01  0.0000000000000000e+00 5.3862507438979956e-01 7.5911893678446463e-01  0.0000000000000000e+00 5.9366025365789543e-01 6.8720242985745550e-01  0.0000000000000000e+00 6.4189901912758607e-01 6.1950953385773178e-01  0.0000000000000000e+00 6.8430134232910089e-01 5.5647869177910503e-01  0.0000000000000000e+00 7.2181076080524953e-01 4.9813285125941731e-01  0.0000000000000000e+00 7.5308152031417730e-01 4.4767270201132814e-01  0.0000000000000000e+00 7.8071556562957478e-01 4.0171863678296721e-01  0.0000000000000000e+00 8.0425605242282538e-01 3.6154895474311638e-01  0.0000000000000000e+00 8.2350575206303556e-01 3.2796402660137552e-01  0.0000000000000000e+00 8.4013572149826887e-01 2.9843448388793442e-01  0.0000000000000000e+00 8.5398594164763675e-01 2.7340191923349416e-01  0.0000000000000000e+00 8.6544865217728306e-01 2.5240108109556630e-01  0.0000000000000000e+00 8.7506172148270978e-01 2.3453559477267094e-01  0.0000000000000000e+00 8.8270415787474565e-01 2.2017109140810170e-01  0.0000000000000000e+00 8.8833417998818875e-01 2.0946456759214496e-01  0.0000000000000000e+00 8.9295259633528745e-01 2.0060173959386809e-01  0.0000000000000000e+00 8.9699634300023434e-01 1.9279313556368127e-01  0.0000000000000000e+00 8.9979479404856433e-01 1.8735425413487519e-01  0.0000000000000000e+00 9.0083790280374920e-01 1.8530930010148763e-01  0.0000000000000000e+00 9.0012586278240581e-01 1.8670032273570625e-01  0.0000000000000000e+00 8.9822505462081015e-01 1.9039629049091025e-01  0.0000000000000000e+00 8.9599292892602422e-01 1.9473464551314373e-01  0.0000000000000000e+00 8.9274921245096395e-01 2.0100077727609228e-01  0.0000000000000000e+00 8.8806116088051357e-01 2.0997722584934217e-01  0.0000000000000000e+00 8.8299508786758485e-01 2.1961190490093296e-01  0.0000000000000000e+00 8.7717012227262037e-01 2.3059168151128340e-01  0.0000000000000000e+00 8.6991724434508622e-01 2.4412676150952356e-01  0.0000000000000000e+00 8.6134273142286766e-01 2.5995947245730860e-01  0.0000000000000000e+00 8.5176553523345122e-01 2.7744626812561518e-01  0.0000000000000000e+00 8.4108969878234163e-01 2.9671962739884844e-01  0.0000000000000000e+00 8.2886511895470472e-01 3.1850257029307999e-01  0.0000000000000000e+00 8.1487279506176724e-01 3.4313078719394541e-01  0.0000000000000000e+00 7.9813076035758668e-01 3.7207908317521027e-01  0.0000000000000000e+00 7.7981356259981593e-01 4.0323069440537607e-01  0.0000000000000000e+00 7.5860258078519849e-01 4.3856614445158631e-01  0.0000000000000000e+00 7.3498446713760512e-01 4.7704687086767078e-01  0.0000000000000000e+00 7.0706607451314629e-01 5.2132832989702393e-01  0.0000000000000000e+00 6.3895192610173768e-01 6.2373087738697452e-01  0.0000000000000000e+00 5.9471143469889254e-01 6.8575685921371199e-01  0.0000000000000000e+00 5.4558190580437016e-01 7.5025459493482671e-01  0.0000000000000000e+00 4.8894165882958823e-01 8.1862097398772404e-01  0.0000000000000000e+00 4.2542669506014297e-01 8.8622669477062466e-01  0.0000000000000000e+00 3.5588084148412669e-01 9.4815071660480499e-01  0.0000000000000000e+00 2.8274391880160477e-01 9.9570177655174774e-01  0.0000000000000000e+00 2.0937716113893162e-01 1.0183983207741594e+00  0.0000000000000000e+00 1.4247938487330097e-01 1.0032397492125484e+00  0.0000000000000000e+00 8.8736508385979851e-02 9.4390038879797977e-01  0.0000000000000000e+00 5.3982549073825763e-02 8.4403888487359435e-01  0.0000000000000000e+00 3.3802388459845796e-02 7.1933700708795012e-01  0.0000000000000000e+00 2.3866381244192918e-02 5.9617088342261704e-01  0.0000000000000000e+00 1.9329306750057701e-02 4.9292697445923334e-01  0.0000000000000000e+00 1.6847628349399922e-02 4.0696950261455195e-01  0.0000000000000000e+00 1.5833447242040985e-02 3.4584994716956430e-01  0.0000000000000000e+00 1.5405611704360856e-02 3.0073151054692926e-01  0.0000000000000000e+00 1.5301777450918628e-02 2.6655857412956918e-01  0.0000000000000000e+00 1.5322998159863628e-02 2.4635800331935037e-01  0.0000000000000000e+00 8.2765648701303485e-01 3.2062838701396634e-01  0.0000000000000000e+00 1.4557502606751208e-01 1.0049021474788589e+00  0.0000000000000000e+00 8.8115405783377287e-01 2.2304767421123861e-01  0.0000000000000000e+00 1.6058989610793009e-02 3.6109079329580374e-01  0.0000000000000000e+00 8.9487069792755525e-01 1.9685477626248690e-01  0.0000000000000000e+00 4.6888904580521945e-01 8.4066187419151783e-01  0.0000000000000000e+00 1.5308330079279332e-02 2.7790139293341248e-01  0.0000000000000000e+00 6.4443233875673134e-01 6.1572144078291791e-01  0.0000000000000000e+00 1.8594249962541856e-01 1.0179990126952154e+00  0.0000000000000000e+00 2.0090122530143553e-02 5.1559663657623556e-01  0.0000000000000000e+00 8.6051669563334732e-01 2.6145104228881116e-01  0.0000000000000000e+00 7.6469498195700769e-01 4.2851779035159193e-01  0.0000000000000000e+00 8.1378387861865642e-01 3.4500980082814603e-01  0.0000000000000000e+00 8.7624738898350529e-01 2.3228763493880947e-01  0.0000000000000000e+00 1.5635652736980393e-02 3.2714518476426879e-01  0.0000000000000000e+00 3.8966765434421302e-01 9.1956503248459331e-01  0.0000000000000000e+00 4.2499541026229479e-02 7.8704178750372411e-01  0.0000000000000000e+00 6.6949203214328279e-01 5.7884977132614446e-01  0.0000000000000000e+00 8.8893452942305218e-01 2.0828179567221194e-01  0.0000000000000000e+00 3.1983626389841147e-02 7.0241815015040054e-01  0.0000000000000000e+00 7.6259270213609498e-01 4.3199329294827804e-01  0.0000000000000000e+00 1.5315869213766826e-02 2.6772773227949875e-01  0.0000000000000000e+00 5.1362991578305495e-01 7.8970067848537262e-01  0.0000000000000000e+00 1.6646929685923906e-02 3.9641109326073698e-01  0.0000000000000000e+00 5.7864201978372054e-01 7.0754206188781721e-01  0.0000000000000000e+00 7.7948811645776356e-02 9.2013329458508353e-01  0.0000000000000000e+00 8.9379580373981560e-01 1.9892918963690345e-01  0.0000000000000000e+00 8.5477611488015537e-01 2.7195587243725927e-01  0.0000000000000000e+00 6.4237288632164852e-02 8.8397236420813696e-01  0.0000000000000000e+00 7.9931614456658279e-02 9.2809676826214005e-01  0.0000000000000000e+00 5.1026486968199711e-02 8.3589674774694112e-01  0.0000000000000000e+00 9.8542838540760083e-02 9.6171035801983273e-01  0.0000000000000000e+00 1.4390056111309488e-01 1.0057104706604045e+00  0.0000000000000000e+00 1.6589408794487165e-01 1.0149175669492159e+00  0.0000000000000000e+00 2.1992876561300917e-01 1.0175896909501314e+00  0.0000000000000000e+00 2.4311160514528207e-01 1.0121871329384184e+00  0.0000000000000000e+00 3.0046168342229818e-01 9.8643347283450289e-01  0.0000000000000000e+00 3.2233252119224171e-01 9.7273141868108426e-01  0.0000000000000000e+00 2.6412791839655142e-01 1.0045787474473171e+00  0.0000000000000000e+00 3.4127489108069037e-01 9.5942854436630198e-01  0.0000000000000000e+00 2.8199524289925498e-01 9.9636713444916047e-01  0.0000000000000000e+00 3.5724241649307087e-01 9.4725001840914103e-01  0.0000000000000000e+00 2.9723747225547936e-01 9.8822148102821494e-01  0.0000000000000000e+00 3.7073749051528759e-01 9.3630402203446494e-01  0.0000000000000000e+00 4.2837533030516350e-01 8.8350751738358935e-01  0.0000000000000000e+00 4.3981695756457007e-01 8.7193554516881611e-01  0.0000000000000000e+00 3.8185366362226103e-01 9.2686730589977806e-01  0.0000000000000000e+00 4.4910291026551141e-01 8.6229897619733653e-01  0.0000000000000000e+00 5.0146922304757302e-01 8.0410243310477514e-01  0.0000000000000000e+00 5.0916681567689637e-01 7.9502219260750762e-01  0.0000000000000000e+00 5.5700239051765621e-01 7.3577271026355240e-01  0.0000000000000000e+00 5.6323759204594370e-01 7.2770138244797655e-01  0.0000000000000000e+00 5.1534357750234905e-01 7.8764387226542021e-01  0.0000000000000000e+00 5.6813375431443580e-01 7.2130846174629437e-01  0.0000000000000000e+00 6.1066816102680599e-01 6.6383635261832918e-01  0.0000000000000000e+00 6.1462602798107768e-01 6.5831491002218889e-01  0.0000000000000000e+00 5.7200089165894930e-01 7.1622626481390050e-01  0.0000000000000000e+00 6.5278135183763863e-01 6.0361595236186005e-01  0.0000000000000000e+00 6.5589607597706490e-01 5.9903432519787370e-01  0.0000000000000000e+00 6.8948323868802364e-01 5.4855362081229531e-01  0.0000000000000000e+00 6.8629171076819340e-01 5.5343454638847545e-01  0.0000000000000000e+00 6.9196590816995507e-01 5.4474465746643652e-01  0.0000000000000000e+00 7.1954837389526716e-01 5.0171861174064014e-01  0.0000000000000000e+00 3.7761950436315700e-01 9.3053551718235283e-01  0.0000000000000000e+00 7.1627315195202401e-01 5.0689582798531818e-01  0.0000000000000000e+00 7.4581400208430482e-01 4.5954332995235447e-01  0.0000000000000000e+00 7.4245745250281736e-01 4.6499787511167967e-01  0.0000000000000000e+00 7.6918021721508789e-01 4.2105229826027890e-01  0.0000000000000000e+00 7.7187317928131138e-01 4.1655700111939475e-01  0.0000000000000000e+00 7.9266897319470186e-01 3.8142755947842044e-01  0.0000000000000000e+00 7.9474750111686343e-01 3.7787532360982534e-01  0.0000000000000000e+00 7.6577184586124480e-01 4.2672405051605361e-01  0.0000000000000000e+00 7.3828630786023353e-01 4.7174999526409062e-01  0.0000000000000000e+00 7.6144824502521724e-01 4.3389058061934499e-01  0.0000000000000000e+00 7.3303327173006305e-01 4.8021194483407736e-01  0.0000000000000000e+00 7.5613005291665103e-01 4.4266321663927871e-01  0.0000000000000000e+00 7.2658255037744668e-01 4.9053967669961468e-01  0.0000000000000000e+00 7.8213267950001730e-01 3.9931903753541331e-01  0.0000000000000000e+00 8.1299715564408048e-01 3.4636778935867180e-01  0.0000000000000000e+00 8.1465831768099828e-01 3.4347089198456454e-01  0.0000000000000000e+00 2.2060800281350976e-01 1.0174291081168594e+00  0.0000000000000000e+00 7.9631398906287876e-01 3.7519327724998025e-01  0.0000000000000000e+00 8.1589758530730050e-01 3.4130669050599294e-01  0.0000000000000000e+00 7.9745507889893952e-01 3.7323672719999773e-01  0.0000000000000000e+00 8.1682184806182323e-01 3.3969071002895679e-01  0.0000000000000000e+00 7.9841597559364741e-01 3.7158732701847896e-01  0.0000000000000000e+00 3.5498527570408045e-01 9.4907941139670460e-01  0.0000000000000000e+00 4.2966541402137431e-01 8.8223872847478702e-01  0.0000000000000000e+00 8.1755815296730272e-01 3.3840206428826547e-01  0.0000000000000000e+00 7.9921901999669842e-01 3.7020769867074271e-01  0.0000000000000000e+00 7.4972675372727982e-01 4.5316300825222472e-01  0.0000000000000000e+00 7.1876767605010172e-01 5.0295707581682081e-01  0.0000000000000000e+00 6.9220864574318908e-01 5.4437482888720434e-01  0.0000000000000000e+00 6.8271486258745562e-01 5.5888812114639919e-01  0.0000000000000000e+00 8.3342164200324276e-01 3.1040495738071255e-01  0.0000000000000000e+00 6.5299900954034718e-01 6.0330045185057934e-01  0.0000000000000000e+00 6.4151827449034982e-01 6.2004427662004180e-01  0.0000000000000000e+00 2.3419912774804133e-01 1.0145986682538584e+00  0.0000000000000000e+00 1.6125277137601049e-01 1.0133408494862022e+00  0.0000000000000000e+00 1.7272696828383768e-01 1.0166239924063276e+00  0.0000000000000000e+00 1.0764940589063533e-01 9.7370628057738962e-01  0.0000000000000000e+00 1.1633901219675975e-01 9.8360009910918389e-01  0.0000000000000000e+00 1.8234176208818617e-01 1.0183432885757644e+00  0.0000000000000000e+00 1.2382554488870416e-01 9.9081672777999530e-01  0.0000000000000000e+00 1.9032965772189292e-01 1.0191147802019134e+00  0.0000000000000000e+00 1.3023550016818677e-01 9.9617374126578317e-01  0.0000000000000000e+00 1.9702641946148652e-01 1.0193317469314782e+00  0.0000000000000000e+00 1.3586192203827460e-01 1.0003015669502007e+00  0.0000000000000000e+00 2.0286505292394505e-01 1.0192195078908495e+00  0.0000000000000000e+00 1.4109981370893884e-01 1.0036732864024005e+00  0.0000000000000000e+00 2.0833986143141398e-01 1.0188757673175726e+00  0.0000000000000000e+00 1.4641531087906035e-01 1.0066692330350393e+00  0.0000000000000000e+00 2.1403305542803802e-01 1.0182792385399795e+00  0.0000000000000000e+00 8.0899360998257883e-02 9.2941371269181994e-01  0.0000000000000000e+00 1.5235974897513818e-01 1.0095768413881498e+00  0.0000000000000000e+00 2.2062664636071244e-01 1.0173100550648908e+00  0.0000000000000000e+00 2.8611163714371757e-01 9.9420407299694846e-01  0.0000000000000000e+00 2.9307719417908668e-01 9.9046363067731458e-01  0.0000000000000000e+00 3.5627686545415077e-01 9.4795147699699367e-01  0.0000000000000000e+00 3.6274938413904068e-01 9.4277675324975430e-01  0.0000000000000000e+00 4.2292229818507676e-01 8.8886174842488241e-01  0.0000000000000000e+00 4.2912153607503289e-01 8.8271834864400667e-01  0.0000000000000000e+00 4.8357968638018922e-01 8.2467476228541881e-01  0.0000000000000000e+00 4.8942922507012754e-01 8.1801093337102826e-01  0.0000000000000000e+00 5.3884986561561787e-01 7.5880182778934058e-01  0.0000000000000000e+00 5.4432449581041864e-01 7.5191710524049404e-01  0.0000000000000000e+00 5.8791855578168917e-01 6.9499135860901051e-01  0.0000000000000000e+00 5.9299814286307584e-01 6.8811323512692035e-01  0.0000000000000000e+00 6.3187465487718597e-01 6.3390588205056364e-01  0.0000000000000000e+00 6.3666578650155070e-01 6.2702870820623224e-01  0.0000000000000000e+00 6.7054821159078681e-01 5.7724492380745429e-01  0.0000000000000000e+00 3.7079924166611161e-01 9.3617379754606289e-01  0.0000000000000000e+00 6.6717283029147367e-01 5.8229817081762381e-01  0.0000000000000000e+00 5.9959043663148159e-01 6.7911583800877939e-01  0.0000000000000000e+00 8.9138784740926777e-02 9.4562968345351284e-01  0.0000000000000000e+00 1.5952992253729809e-01 1.0125283929693945e+00  0.0000000000000000e+00 9.9295830695919393e-02 9.6203244475779481e-01  0.0000000000000000e+00 6.4285453487654309e-01 6.1808508440337973e-01  0.0000000000000000e+00 4.9686384599792566e-01 8.0943594747074665e-01  0.0000000000000000e+00 3.5082746452642383e-01 9.5220002702884110e-01  0.0000000000000000e+00 7.0174653679781529e-01 5.2963208526917915e-01  0.0000000000000000e+00 7.0494717027764042e-01 5.2465090699100947e-01  0.0000000000000000e+00 7.3237331804219541e-01 4.8126593941171369e-01  0.0000000000000000e+00 7.7773192893352006e-01 4.0673421269914850e-01  0.0000000000000000e+00 8.3118303901854529e-01 3.1438451654470345e-01  0.0000000000000000e+00 8.2946563044607524e-01 3.1743112034290494e-01  0.0000000000000000e+00 6.5836531314801294e-01 5.9538940579449584e-01  0.0000000000000000e+00 7.1693529692219954e-02 9.0734889185839995e-01  0.0000000000000000e+00 8.1821853176574788e-01 3.3724553732175405e-01  0.0000000000000000e+00 8.3470795705529965e-01 3.0811345972239612e-01  0.0000000000000000e+00 7.0941303855642179e-01 5.1768428326170413e-01  0.0000000000000000e+00 6.0804639721958686e-01 6.6745489746706510e-01  0.0000000000000000e+00 7.3529485099812619e-01 4.7656702177065613e-01  0.0000000000000000e+00 7.5914367407069594e-01 4.3769392743606267e-01  0.0000000000000000e+00 8.4555861040918268e-01 2.8865946423178057e-01  0.0000000000000000e+00 8.4375423051426413e-01 2.9191055377980113e-01  0.0000000000000000e+00 9.7644081359097357e-02 9.5998892528772095e-01  0.0000000000000000e+00 5.9487593827765216e-02 8.7008772834334824e-01  0.0000000000000000e+00 6.5068726588099113e-01 6.0666821198793841e-01  0.0000000000000000e+00 7.0675186128461065e-01 5.2184313490010292e-01  0.0000000000000000e+00 5.4916654651823527e-01 7.4580500193182231e-01  0.0000000000000000e+00 2.6933374518178227e-01 1.0023009066161304e+00  0.0000000000000000e+00 5.3453630973590982e-01 7.6418334155316125e-01  0.0000000000000000e+00 4.0676301999094305e-01 9.0446763677291286e-01  0.0000000000000000e+00 2.5772807742028914e-01 1.0072785312424704e+00  0.0000000000000000e+00 8.8930346070651944e-01 2.0756709771571247e-01  0.0000000000000000e+00 1.9234992406372640e-02 4.9168446679016259e-01  0.0000000000000000e+00 1.0640234229975799e-01 9.7154847004555989e-01  0.0000000000000000e+00 7.1428810983142166e-01 5.1006431454530610e-01  0.0000000000000000e+00 7.0917715710717710e-01 5.1804199067499290e-01  0.0000000000000000e+00 8.4096751094782629e-01 2.9691953847815650e-01  0.0000000000000000e+00 8.5843000460126140e-01 2.6527132126542730e-01  0.0000000000000000e+00 8.5964747005510811e-01 2.6304037383561657e-01  0.0000000000000000e+00 4.7680651463479973e-01 8.3232998020497828e-01  0.0000000000000000e+00 6.0757539106958403e-01 6.6813782058304572e-01  0.0000000000000000e+00 4.4930345169519198e-01 8.6210675825527672e-01  0.0000000000000000e+00 8.2721430994567113e-01 3.2141629839465069e-01  0.0000000000000000e+00 8.4154003635234420e-01 2.9589208752587581e-01  0.0000000000000000e+00 1.6864596693719444e-01 1.0154330630014132e+00  0.0000000000000000e+00 6.9931104530864530e-01 5.3341086579246888e-01  0.0000000000000000e+00 6.9393967054201544e-01 5.4170834348981733e-01  0.0000000000000000e+00 6.6456472289584023e-01 5.8618927736952164e-01  0.0000000000000000e+00 8.3524878504891942e-01 3.0714814034380478e-01  0.0000000000000000e+00 8.4957553946243791e-01 2.8139715549605188e-01  0.0000000000000000e+00 8.1894743412780946e-01 3.3596791443853352e-01  0.0000000000000000e+00 7.6198908990814296e-01 4.3299232992979209e-01  0.0000000000000000e+00 7.8340168433227619e-01 3.9716926220631243e-01  0.0000000000000000e+00 5.2864539574958277e-02 8.4362404454974793e-01  0.0000000000000000e+00 6.3037520961998827e-02 8.8222532075903914e-01  0.0000000000000000e+00 3.2629638521653591e-02 7.1387533846361251e-01  0.0000000000000000e+00 1.1583892816734358e-01 9.8221406232779418e-01  0.0000000000000000e+00 1.8013777820936186e-01 1.0177601442554030e+00  0.0000000000000000e+00 6.0668144787918460e-02 8.7327749225192175e-01  0.0000000000000000e+00 4.5459274242776287e-01 8.5655035616055053e-01  0.0000000000000000e+00 5.2004045331684379e-01 7.8200786708104852e-01  0.0000000000000000e+00 4.9805722009758269e-01 8.0811640825616216e-01  0.0000000000000000e+00 5.5931955794631960e-01 7.3279858655237529e-01  0.0000000000000000e+00 5.9923027614692481e-01 6.7962910986804659e-01  0.0000000000000000e+00 6.1927188495057728e-01 6.5180049680618268e-01  0.0000000000000000e+00 3.9086037176910376e-01 9.1895030823981561e-01  0.0000000000000000e+00 7.5709473357682044e-01 4.4107174330216758e-01  0.0000000000000000e+00 7.7551281464097133e-01 4.1046149016532762e-01  0.0000000000000000e+00 8.3586070549695368e-01 3.0605536056544153e-01  0.0000000000000000e+00 3.2977000541518620e-01 9.6763220661890248e-01  0.0000000000