<?xml version="1.0"?>
<VTKFile type="UnstructuredGrid"  version="0.1"  >
<UnstructuredGrid>
<Piece  NumberOfPoints="645" NumberOfCells="1208">
<Points>
<DataArray  type="Float64"  NumberOfComponents="3"  format="ascii">500 250 0  0 250 0  250 500 0  250 0 0  269.6147739849193 499.2293334291141 0  289.1086163645346 496.9220851322369 0  308.3613411380662 493.0924800576239 0  327.2542488153708 487.7641290017751 0  345.6708583410312 480.9698830243682 0  363.4976252268579 472.7516308983252 0  380.6246415053586 463.1600408885224 0  396.9463134355418 452.2542483304208 0  412.3620124901979 440.1014910518401 0  426.7766957038264 426.7766948894474 0  440.1014917275007 412.3620116991009 0  452.2542488669409 396.9463126970852 0  463.1600413033558 380.6246408284121 0  472.751631216677 363.4976246020575 0  480.9698832532689 345.6708577884161 0  487.7641291438106 327.2542483782306 0  493.0924801408104 308.3613407915692 0  496.9220851690424 289.1086161321545 0  499.2293334387019 269.6147738630947 0  499.229333430357 230.3852260308728 0  496.9220851356368 210.8913836569316 0  493.0924800663345 191.6386588982162 0  487.7641290184218 172.7457512358624 0  480.9698830399936 154.3291416966919 0  472.7516309070343 136.5023747902346 0  463.1600408987175 119.3753585112783 0  452.2542483410546 103.0536865790945 0  440.1014910714183 87.63798753272525 0  426.7766948943133 73.22330430103958 0  412.3620117009348 59.89850827406559 0  396.9463126913573 47.74575112889752 0  380.6246408261736 36.83995869527249 0  363.4976245953484 27.24836877990464 0  345.6708577827026 19.03011674436451 0  327.2542483716913 12.23587085406467 0  308.361340780398 6.907519856507577 0  289.1086161262194 3.077914830017676 0  269.6147738583604 0.7706665609254912 0  230.3852260302092 0.7706665696952655 0  210.8913836535466 3.077914864899299 0  191.6386589008631 6.907519933030017 0  172.7457512318028 12.23587098289721 0  154.3291416990867 19.03011695901438 0  136.5023748091553 27.24836908332517 0  119.3753585100802 36.83995910201668 0  103.0536865836863 47.74575165560921 0  87.6379875279894 59.89850893262656 0  73.22330429312285 73.2233051136034 0  59.89850825318987 87.6379883235075 0  47.74575112052588 103.0536873201654 0  36.83995867902311 119.375359200343 0  27.24836876726107 136.502375429466 0  19.03011674184958 154.3291422233689 0  12.23587084468659 172.7457516571714 0  6.90751985664113 191.6386592190457 0  3.07791483051173 210.8913838706611 0  0.7706665612319625 230.3852261377458 0  0.770666570878916 269.6147739848303 0  3.077914868063033 289.1086163664283 0  6.907519941211973 308.3613411332171 0  12.23587099861078 327.2542488165586 0  19.03011697319531 345.6708583351491 0  27.24836908997781 363.4976252039013 0  36.83995910945072 380.624641502051 0  47.74575166272689 396.9463134261104 0  59.89850895284744 412.3620124956862 0  73.223305118437 426.7766957117107 0  87.63798832904175 440.1014917515369 0  103.0536873198473 452.2542488792431 0  119.3753591950333 463.1600413177231 0  136.502375416904 472.7516312263383 0  154.3291422204512 480.9698832569418 0  172.7457516527922 487.7641291538905 0  191.6386592093489 493.0924801410308 0  210.891383865478 496.9220851686673 0  230.38522613373 499.229333438452 0  408.0297414380137 79.04438812052823 0  470.6929872351991 328.8394125533284 0  327.5791944935511 30.66901791634585 0  186.8066927430735 474.0665667617239 0  241.1725543363619 17.80467707257488 0  481.8957906849985 237.8895419164845 0  241.9028711997863 481.7677876757489 0  22.04240264610397 260.0195362144032 0  66.93524317993541 393.9967576354165 0  407.5748062742585 421.804202868455 0  91.14498776833713 78.15950434153694 0  443.5721620986452 120.6592159456753 0  47.90357490700103 137.2584608638679 0  121.9854148726425 53.89110248018969 0  346.0986346915193 460.9657062005573 0  37.15978683308909 348.686261000426 0  443.2617512614241 379.6653657108164 0  469.6395010170255 166.6128966790255 0  169.4214360799271 31.58224567687904 0  120.0926710183088 443.0188983543295 0  25.93343325113663 186.8066927541892 0  294.4711068775667 479.0497777351075 0  25.93343346326644 313.1933076022177 0  379.5895462631086 444.9259942605202 0  477.3836837079734 202.381284598844 0  91.97025859159305 420.9556118868529 0  201.8099842058005 21.62718472283686 0  378.9340731306958 56.62233582097542 0  452.9866090845981 363.3843712213892 0  433.7891058935094 362.712636160478 0  423.9473865733744 379.4564211535431 0  414.2436151024774 362.5677032958672 0  424.001708291139 345.6669244533275 0  404.4610922180836 345.5134771956895 0  414.341417486195 328.5773255591307 0  394.7677429029752 328.480795053565 0  404.6609853910698 311.5262601202149 0  385.031291303632 311.4357195826571 0  375.101270673993 328.3607598117625 0  365.3740866097247 311.3257829175604 0  355.5083459394236 328.2997490723603 0  345.7718933714782 311.2546684470915 0  335.8786468089485 328.2092240351425 0  326.1421942370671 311.1641433897183 0  336.003344415795 294.1838138923774 0  316.3860344407723 294.1066032295112 0  306.5124951000444 311.0736183338123 0  296.7501789069282 294.0121813369556 0  306.6515351153541 277.0655652779993 0  287.0395899630898 276.98345703061 0  296.9328365330605 260.0289014374702 0  277.2982248613483 259.9358158720167 0  267.3990712864435 276.8845676964974 0  257.6713884944854 259.8456251093223 0  267.5666848269919 242.8932957192846 0  247.9365419809313 242.8056592582466 0  238.0437391039621 259.7573262582974 0  257.8302322568193 225.8482150584726 0  238.2005331082895 225.757689997251 0  248.0937796848919 208.8031343943687 0  267.7234788341136 208.8936594571897 0  228.4640805329348 208.712609333587 0  257.9870262635756 191.8485787959149 0  394.9245487736064 294.4811717944075 0  277.6167254091284 191.9391038586934 0  267.8802728403858 174.8940232011079 0  287.5005584344734 175.0117093161379 0  277.7685743892544 157.9663496219783 0  258.1421294336732 157.8702099927723 0  268.0370668499073 140.8943869520292 0  248.4073677066822 140.803861887803 0  297.4032185518097 158.029992671988 0  307.1396711152761 175.0750733211352 0  317.0329176840529 158.1205177336628 0  326.7693702482894 175.1655983760161 0  336.6626168121476 158.2110427905018 0  346.3990693731281 175.2561234311168 0  326.9054332650823 141.220514475552 0  258.300614283603 123.8493062912708 0  238.6709151364965 123.7587812267517 0  345.602770870788 345.2345146507195 0  228.7776685563935 140.7133368276114 0  219.0412159824577 123.6682561607107 0  209.1548086869 140.6568288028854 0  199.4115168211257 123.5777310947873 0  189.5182702336654 140.5322867083881 0  414.5061001206328 294.5791962676446 0  404.8178099709576 277.5266248278496 0  179.7818176563396 123.4872060318257 0  169.8885710669681 140.4417616462852 0  356.2923159345929 158.3015678516131 0  366.0287684987967 175.3466484913704 0  356.1355219340599 192.3012040743702 0  375.7652210728186 192.3917291327877 0  209.3047634085723 106.6231754828329 0  365.8719745031602 209.3462847214261 0  385.4473336989289 209.4589172776483 0  325.9854002589402 345.1637796339881 0  335.7218528424219 362.2088602706556 0  316.0921537106989 362.1183352318304 0  325.8286062932657 379.163415866528 0  306.198907162322 379.0728908286862 0  296.4624545814172 362.0278101960448 0  286.5692080329665 378.982365791018 0  276.8327554515532 361.9372851563691 0  266.939508902649 378.8918407521974 0  257.2030563201347 361.8467601163857 0  247.3098097697766 378.8013157143188 0  237.5733571858447 361.7562350760078 0  227.6801106339195 378.7107906764817 0  217.943658048477 361.6657100354885 0  208.0504114944145 378.6202656389371 0  198.313958909151 361.5751849900388 0  257.046262353733 395.8463963506437 0  188.4207123491114 378.5297405967377 0  178.6942702061005 361.4572585380363 0  188.5775063311286 344.5301043308571 0  168.9825719925815 344.3679587423489 0  178.862757141982 327.4597476508416 0  159.2319047656242 327.3721603214715 0  169.1046011625246 310.4399430048529 0  149.4749020045267 310.3494179549329 0  159.3681485763936 293.3948623397931 0  139.7621343179957 293.2923655078865 0  149.6316959897331 276.3497816754953 0  130.001996832586 276.2592566257254 0  139.8952434039481 259.3047010132285 0  120.2655442487169 259.2141759632096 0  130.1587908193085 242.2596203521963 0  110.5290916658602 242.1690953021686 0  120.4223382355493 225.2145396926986 0  139.5816554329651 327.3039735703393 0  140.0520373886098 225.3050647418833 0  100.6358450969261 259.1236509112424 0  217.7868640819771 395.665346280658 0  168.7910131993309 378.4392155450739 0  178.5274657798013 395.4842962032838 0  90.89939251396862 242.0785702520503 0  120.1087502632246 293.2138122376823 0  198.4827020443107 327.560288315778 0  130.3155848042933 208.2599840821261 0  110.6858856511 208.169459032866 0  120.5791322200218 191.2149034219518 0  179.6250236464644 157.4868423201703 0  248.5641617155314 106.8042256262046 0  268.1938608640521 106.8947506897054 0  218.5708339532014 225.6671649402842 0  296.3097884844733 395.9656221920631 0  160.1521184905691 123.396680968142 0  170.0453650783119 106.4421253476802 0  385.658427623638 175.451920499978 0  81.00614594559451 259.0331258609116 0  101.0554053508192 191.1247040573367 0  110.8426796353596 174.1698227613512 0  258.4574082944565 89.84967002797657 0  278.0871074405096 89.94019509160398 0  345.4583054269535 379.2539409100921 0  335.5650588729622 396.2084965020994 0  71.26969336281471 241.9880452024695 0  316.8761236845766 192.1201539629169 0  316.5489845965977 260.1172740927201 0  247.4666037372683 344.8016794754746 0  169.261395148653 276.4403067246208 0  424.4475090085939 277.6171671056567 0  477.5061263880716 295.9860753924438 0  297.7010004405789 21.78753761157149 0  152.5329738481066 461.4223243306178 0  158.8977666313233 395.3937711508539 0  18.80645331331318 222.6364406178562 0  91.05618649809102 208.0789339835232 0  67.55529962754241 105.2642692875928 0  268.3506548722531 72.89511443289081 0  248.7209557265558 72.80458936723331 0  414.7110714038412 260.5720779140291 0  375.5311866215619 226.3973061791794 0  385.1881
[...]
<PointData  Vectors="f_12"> 
<DataArray  type="Float64"  Name="f_12"  NumberOfComponents="3" format="ascii">0.0000000000000000e+00 3.2376849718598966e-01 9.7140567591259253e-01  0.0000000000000000e+00 6.1187602428398469e-01 6.6209926241006767e-01  0.0000000000000000e+00 1.5331650383054552e-02 2.8946581238972169e-01  0.0000000000000000e+00 8.9136171741096482e-01 2.0368185628778934e-01  0.0000000000000000e+00 1.5312279914563014e-02 2.8429547247945014e-01  0.0000000000000000e+00 1.5315268804586373e-02 2.8505258459940952e-01  0.0000000000000000e+00 1.5343771269436415e-02 2.9216967037472519e-01  0.0000000000000000e+00 1.5421596896683817e-02 3.0577635303661915e-01  0.0000000000000000e+00 1.5571676749224316e-02 3.2388824393708548e-01  0.0000000000000000e+00 1.5811902978999062e-02 3.4515797956460925e-01  0.0000000000000000e+00 1.6188045220875566e-02 3.7074112750047966e-01  0.0000000000000000e+00 1.6848483066306826e-02 4.0599390346074277e-01  0.0000000000000000e+00 1.8023732445417613e-02 4.5378095905226679e-01  0.0000000000000000e+00 1.9940052158631854e-02 5.1135789909082030e-01  0.0000000000000000e+00 2.2828136455287640e-02 5.7487369904870089e-01  0.0000000000000000e+00 2.7635575237737259e-02 6.5049870378091068e-01  0.0000000000000000e+00 3.6253876802552210e-02 7.3843215036459509e-01  0.0000000000000000e+00 4.9753675193928641e-02 8.2268114240268653e-01  0.0000000000000000e+00 7.1983868518898861e-02 9.0329036659162354e-01  0.0000000000000000e+00 1.0491016426946242e-01 9.6649112820607097e-01  0.0000000000000000e+00 1.4716253503790197e-01 1.0047717662404421e+00  0.0000000000000000e+00 2.0050500004172706e-01 1.0178964318778652e+00  0.0000000000000000e+00 2.6204049028163157e-01 1.0048199033311673e+00  0.0000000000000000e+00 3.8970458664621460e-01 9.1977303858562576e-01  0.0000000000000000e+00 4.5230541853242606e-01 8.5879920317056258e-01  0.0000000000000000e+00 5.1119561421998128e-01 7.9252345298853200e-01  0.0000000000000000e+00 5.6746131326127391e-01 7.2220272608796721e-01  0.0000000000000000e+00 6.1768826049705028e-01 6.5402774853263090e-01  0.0000000000000000e+00 6.6389740417646437e-01 5.8719062996055271e-01  0.0000000000000000e+00 7.0257105453716739e-01 5.2836110634409328e-01  0.0000000000000000e+00 7.3820940965534632e-01 4.7189334195009991e-01  0.0000000000000000e+00 7.6885209835445267e-01 4.2162733065043001e-01  0.0000000000000000e+00 7.9444695141648469e-01 3.7839516027295178e-01  0.0000000000000000e+00 8.1518082424859717e-01 3.4257984003025393e-01  0.0000000000000000e+00 8.3342928557839657e-01 3.1039947866900186e-01  0.0000000000000000e+00 8.4840828026150517e-01 2.8354263196921992e-01  0.0000000000000000e+00 8.6024459072487414e-01 2.6197162246880584e-01  0.0000000000000000e+00 8.7029114715228340e-01 2.4344980398611701e-01  0.0000000000000000e+00 8.7788090373045480e-01 2.2927671809693739e-01  0.0000000000000000e+00 8.8334996273510080e-01 2.1895495942429569e-01  0.0000000000000000e+00 8.8783424385653809e-01 2.1044005924807652e-01  0.0000000000000000e+00 8.9118562545272872e-01 2.0404189579654988e-01  0.0000000000000000e+00 8.9236411858764786e-01 2.0176695106763046e-01  0.0000000000000000e+00 8.9148814215998018e-01 2.0344537405529170e-01  0.0000000000000000e+00 8.8946504713762198e-01 2.0731188027929043e-01  0.0000000000000000e+00 8.8730416436038084e-01 2.1144711965725341e-01  0.0000000000000000e+00 8.8385303147328764e-01 2.1801136900316645e-01  0.0000000000000000e+00 8.7853405855936895e-01 2.2804016045941553e-01  0.0000000000000000e+00 8.7243063255511766e-01 2.3946385459196207e-01  0.0000000000000000e+00 8.6518071431163412e-01 2.5290137919071426e-01  0.0000000000000000e+00 8.5687351523383726e-01 2.6814895241057984e-01  0.0000000000000000e+00 8.4759121913100999e-01 2.8502018140016572e-01  0.0000000000000000e+00 8.3631537596386440e-01 3.0526995992061873e-01  0.0000000000000000e+00 8.2307549216793296e-01 3.2873475884999770e-01  0.0000000000000000e+00 8.0899815850334078e-01 3.5332692896512874e-01  0.0000000000000000e+00 7.9223509469976872e-01 3.8222116439390685e-01  0.0000000000000000e+00 7.7104987308392037e-01 4.1792833006233854e-01  0.0000000000000000e+00 7.4931898488740167e-01 4.5382898213509587e-01  0.0000000000000000e+00 7.2272987950176037e-01 4.9664460263922011e-01  0.0000000000000000e+00 6.9172497112015918e-01 5.4508142394965153e-01  0.0000000000000000e+00 6.5521899757995417e-01 6.0001555601633794e-01  0.0000000000000000e+00 5.6810683938281203e-01 7.2137535664129493e-01  0.0000000000000000e+00 5.0923280826427619e-01 7.9492049891283878e-01  0.0000000000000000e+00 4.4849339289791790e-01 8.6279748375405374e-01  0.0000000000000000e+00 3.7967573307233909e-01 9.2885840562878963e-01  0.0000000000000000e+00 3.0823665547940654e-01 9.8124778192557849e-01  0.0000000000000000e+00 2.3618080202929395e-01 1.0135210259423522e+00  0.0000000000000000e+00 1.7164860505704435e-01 1.0151962986804606e+00  0.0000000000000000e+00 1.1595704476751240e-01 9.8089823462836512e-01  0.0000000000000000e+00 7.5264021840935363e-02 9.1270634529700356e-01  0.0000000000000000e+00 4.8229311882301923e-02 8.1649332248022966e-01  0.0000000000000000e+00 3.3570511049360617e-02 7.1632359994209860e-01  0.0000000000000000e+00 2.5148696985912253e-02 6.1558651624666161e-01  0.0000000000000000e+00 2.0750668589687517e-02 5.3187269960279326e-01  0.0000000000000000e+00 1.8320955749046533e-02 4.6413692125040290e-01  0.0000000000000000e+00 1.6860778492244412e-02 4.0661048481685325e-01  0.0000000000000000e+00 1.6136155856603815e-02 3.6771472561412810e-01  0.0000000000000000e+00 1.5747666833646409e-02 3.3997034790479969e-01  0.0000000000000000e+00 1.5519586963535437e-02 3.1819277183960415e-01  0.0000000000000000e+00 1.5390046796026041e-02 3.0110465329774921e-01  0.0000000000000000e+00 8.0024015241116608e-01 3.6844880473153940e-01  0.0000000000000000e+00 9.2359463189000540e-02 9.4689792761974734e-01  0.0000000000000000e+00 8.6834585638454731e-01 2.4700262224046604e-01  0.0000000000000000e+00 1.5989610785219811e-02 3.5784710839817707e-01  0.0000000000000000e+00 8.8489498033308001e-01 2.1597375446246075e-01  0.0000000000000000e+00 3.6578946957539127e-01 9.3960024743400927e-01  0.0000000000000000e+00 1.5386631840455139e-02 3.0029755956880910e-01  0.0000000000000000e+00 5.7567067745785960e-01 7.1126979938254942e-01  0.0000000000000000e+00 9.3280926894211524e-02 9.4990691096484781e-01  0.0000000000000000e+00 1.8991551821114273e-02 4.8472530407337883e-01  0.0000000000000000e+00 8.4579262664791477e-01 2.8824222950847916e-01  0.0000000000000000e+00 7.1740640750610540e-01 5.0513567100341772e-01  0.0000000000000000e+00 7.9016687146321407e-01 3.8572103090567555e-01  0.0000000000000000e+00 8.6350066166988981e-01 2.5596343625637719e-01  0.0000000000000000e+00 1.5730385548941361e-02 3.3844300554640644e-01  0.0000000000000000e+00 2.6608150931937430e-01 1.0027781178015067e+00  0.0000000000000000e+00 3.1634415011709993e-02 6.9669360968118776e-01  0.0000000000000000e+00 5.9647782488582157e-01 6.8340229933406560e-01  0.0000000000000000e+00 8.7831409240602787e-01 2.2842400396204229e-01  0.0000000000000000e+00 2.3028723974510449e-02 5.7879404725519012e-01  0.0000000000000000e+00 7.2778172786145467e-01 4.8863795648346553e-01  0.0000000000000000e+00 1.5347441170182562e-02 2.9301834249339975e-01  0.0000000000000000e+00 4.0716597552689149e-01 9.0410884394955593e-01  0.0000000000000000e+00 1.6547000716157004e-02 3.9091595965150999e-01  0.0000000000000000e+00 4.8560071857464282e-01 8.2240689148705082e-01  0.0000000000000000e+00 4.0092520248522279e-02 7.6768376582544184e-01  0.0000000000000000e+00 8.8385581376650091e-01 2.1794375787561140e-01  0.0000000000000000e+00 8.3528286141853980e-01 3.0710510200351704e-01  0.0000000000000000e+00 4.2858141079673832e-02 7.8524619633448633e-01  0.0000000000000000e+00 3.8823460250622999e-02 7.5870853848708408e-01  0.0000000000000000e+00 2.8590741654768013e-02 6.6305171607648561e-01  0.0000000000000000e+00 3.6264596254162153e-02 7.3997569322759793e-01  0.0000000000000000e+00 5.2730889987023105e-02 8.3809107825022389e-01  0.0000000000000000e+00 5.1954053119032804e-02 8.3549062307853417e-01  0.0000000000000000e+00 8.0173868958558964e-02 9.2515245270039526e-01  0.0000000000000000e+00 8.3475821767969124e-02 9.3320697618220183e-01  0.0000000000000000e+00 1.2678630774059008e-01 9.9274455785485416e-01  0.0000000000000000e+00 1.3831946779758017e-01 1.0021994507417238e+00  0.0000000000000000e+00 8.9896993379447662e-02 9.4657529789901407e-01  0.0000000000000000e+00 1.5368214161308555e-01 1.0113442073744241e+00  0.0000000000000000e+00 9.8605600728969497e-02 9.6188199514922301e-01  0.0000000000000000e+00 1.7141200443271246e-01 1.0178775637729467e+00  0.0000000000000000e+00 1.0929919127211395e-01 9.7727925545941396e-01  0.0000000000000000e+00 1.9026690178830022e-01 1.0208470942314025e+00  0.0000000000000000e+00 2.6489538503541354e-01 1.0051967986578076e+00  0.0000000000000000e+00 2.8379983189450170e-01 9.9613950923807859e-01  0.0000000000000000e+00 2.0789982935971324e-01 1.0205212333818847e+00  0.0000000000000000e+00 2.9767633949834554e-01 9.8841527071317536e-01  0.0000000000000000e+00 3.6673976324524499e-01 9.3983967242574740e-01  0.0000000000000000e+00 3.7740260220282629e-01 9.3092168336976400e-01  0.0000000000000000e+00 4.4244453012536822e-01 8.6940345429834898e-01  0.0000000000000000e+00 4.5151037606705507e-01 8.5993538920542945e-01  0.0000000000000000e+00 3.8625373292095078e-01 9.2327577366937652e-01  0.0000000000000000e+00 4.5882783261999055e-01 8.5213532783086487e-01  0.0000000000000000e+00 5.1748141589864438e-01 7.8517439944261969e-01  0.0000000000000000e+00 5.2345950730956980e-01 7.7792041453451699e-01  0.0000000000000000e+00 4.6483308736521434e-01 8.4563440771768061e-01  0.0000000000000000e+00 5.7445019132206321e-01 7.1305032912552258e-01  0.0000000000000000e+00 5.7895540462437389e-01 7.0706740228718812e-01  0.0000000000000000e+00 6.2425793645971150e-01 6.4480263492464240e-01  0.0000000000000000e+00 6.1960047045611222e-01 6.5138036752394135e-01  0.0000000000000000e+00 6.2802392925347383e-01 6.3945409395710573e-01  0.0000000000000000e+00 6.6397058311595769e-01 5.8710608041235268e-01  0.0000000000000000e+00 1.9596346374921197e-01 1.0197147859195586e+00  0.0000000000000000e+00 6.5954472002798648e-01 5.9367725007095917e-01  0.0000000000000000e+00 6.9811994555720325e-01 5.3527646668666085e-01  0.0000000000000000e+00 6.9345465861895328e-01 5.4247450970498190e-01  0.0000000000000000e+00 7.2893811215563908e-01 4.8679334496548643e-01  0.0000000000000000e+00 7.3251135781014398e-01 4.8106566237031051e-01  0.0000000000000000e+00 7.5844015711906509e-01 4.3886494158539602e-01  0.0000000000000000e+00 7.6119054739036618e-01 4.3432305973957819e-01  0.0000000000000000e+00 7.2433525653183839e-01 4.9413890178727349e-01  0.0000000000000000e+00 6.8765922324979067e-01 5.5136496250663791e-01  0.0000000000000000e+00 7.1835155219858071e-01 5.0363334127106041e-01  0.0000000000000000e+00 6.8035345213775744e-01 5.6249170194080711e-01  0.0000000000000000e+00 7.1079210099526502e-01 5.1554083721911226e-01  0.0000000000000000e+00 6.7131832907002287e-01 5.7612733345683109e-01  0.0000000000000000e+00 7.4456539762260676e-01 4.6158679824826421e-01  0.0000000000000000e+00 7.8491991365942415e-01 3.9461364950740030e-01  0.0000000000000000e+00 7.8716108391958517e-01 3.9081307200552129e-01  0.0000000000000000e+00 5.9519073490551772e-02 8.6926629663192323e-01  0.0000000000000000e+00 7.6332906612031426e-01 4.3078304958728081e-01  0.0000000000000000e+00 7.8886051405290469e-01 3.8792544367572124e-01  0.0000000000000000e+00 7.6500467129570171e-01 4.2800373288430327e-01  0.0000000000000000e+00 7.9018913272683955e-01 3.8566408608001379e-01  0.0000000000000000e+00 7.6653905784309029e-01 4.2545436457111435e-01  0.0000000000000000e+00 1.8007125966388027e-01 1.0178167164292813e+00  0.0000000000000000e+00 2.5822012895937541e-01 1.0072764187293259e+00  0.0000000000000000e+00 7.9137458983832654e-01 3.8364350538295455e-01  0.0000000000000000e+00 7.6799136825517933e-01 4.2303786458634529e-01  0.0000000000000000e+00 7.0151498154797609e-01 5.3001996864501255e-01  0.0000000000000000e+00 6.6025215340340460e-01 5.9263615124103008e-01  0.0000000000000000e+00 6.2517958518884942e-01 6.4350450849820018e-01  0.0000000000000000e+00 6.1101414154851785e-01 6.6341379895807484e-01  0.0000000000000000e+00 8.1012742815394945e-01 3.5136296800633748e-01  0.0000000000000000e+00 5.7127025552840460e-01 7.1726225061533910e-01  0.0000000000000000e+00 5.5421542747180474e-01 7.3945617902748328e-01  0.0000000000000000e+00 6.3948612689841838e-02 8.8553000322873121e-01  0.0000000000000000e+00 3.6710046690303325e-02 7.4729299020514039e-01  0.0000000000000000e+00 3.8178208537008727e-02 7.5933548239288029e-01  0.0000000000000000e+00 2.5552625308872593e-02 6.2434141363045959e-01  0.0000000000000000e+00 2.6006773738525883e-02 6.3160051783726301e-01  0.0000000000000000e+00 3.9853405069030269e-02 7.7202779415575884e-01  0.0000000000000000e+00 2.6622395473407435e-02 6.4074425276996028e-01  0.0000000000000000e+00 4.1638711553723610e-02 7.8455343942121769e-01  0.0000000000000000e+00 2.7429348886464158e-02 6.5188088403421085e-01  0.0000000000000000e+00 4.3714519217461820e-02 7.9785176876172326e-01  0.0000000000000000e+00 2.8562188451369718e-02 6.6642742479182715e-01  0.0000000000000000e+00 4.6590284725247282e-02 8.1430777075310579e-01  0.0000000000000000e+00 3.0240577899781289e-02 6.8620082326341547e-01  0.0000000000000000e+00 5.0863322137792870e-02 8.3561721015571522e-01  0.0000000000000000e+00 3.2778438212755577e-02 7.1267488203334450e-01  0.0000000000000000e+00 5.6963415830733319e-02 8.6115161968913334e-01  0.0000000000000000e+00 2.0965090123045139e-02 5.3872027649216414e-01  0.0000000000000000e+00 3.6500425601537281e-02 7.4545513055038903e-01  0.0000000000000000e+00 6.4877502687073513e-02 8.8819948232660362e-01  0.0000000000000000e+00 1.1052430027700325e-01 9.7945502935045958e-01  0.0000000000000000e+00 1.2168650784985484e-01 9.9045326543624390e-01  0.0000000000000000e+00 1.9013963030302050e-01 1.0204454516243617e+00  0.0000000000000000e+00 2.0079600046676410e-01 1.0203285976587444e+00  0.0000000000000000e+00 2.7544662737615716e-01 9.9999691400218571e-01  0.0000000000000000e+00 2.8641382640769703e-01 9.9453414753853520e-01  0.0000000000000000e+00 3.5455016548725404e-01 9.4952825537518770e-01  0.0000000000000000e+00 3.6562431551979574e-01 9.4066182259538855e-01  0.0000000000000000e+00 4.2902439442644641e-01 8.8296577218325778e-01  0.0000000000000000e+00 4.3901255549660712e-01 8.7284314161201448e-01  0.0000000000000000e+00 4.9465226828223341e-01 8.1210335664010069e-01  0.0000000000000000e+00 5.0390063708228316e-01 8.0130581266505829e-01  0.0000000000000000e+00 5.5447654098024668e-01 7.3906564664633057e-01  0.0000000000000000e+00 5.6257495319830420e-01 7.2859554442989394e-01  0.0000000000000000e+00 6.0538144172594854e-01 6.7118964376382806e-01  0.0000000000000000e+00 2.1389280900176011e-01 1.0191426887882393e+00  0.0000000000000000e+00 5.9924270405133473e-01 6.7963963961433849e-01  0.0000000000000000e+00 5.1507693364589591e-01 7.8801304489428536e-01  0.0000000000000000e+00 2.2743874622289207e-02 5.7618375780424713e-01  0.0000000000000000e+00 4.1671335632229078e-02 7.8237792260495620e-01  0.0000000000000000e+00 2.6879318568359116e-02 6.4331102093744863e-01  0.0000000000000000e+00 5.7223413725769989e-01 7.1594066521526700e-01  0.0000000000000000e+00 3.7853771784821821e-01 9.2985210184954470e-01  0.0000000000000000e+00 1.8115323784384602e-01 1.0199197533327549e+00  0.0000000000000000e+00 6.4582239704652500e-01 6.1381421470351516e-01  0.0000000000000000e+00 6.5130882512240507e-01 6.0579546421354968e-01  0.0000000000000000e+00 6.8506035714403457e-01 5.5532136499996887e-01  0.0000000000000000e+00 7.4086843397628288e-01 4.6758413335776577e-01  0.0000000000000000e+00 8.0724598926781288e-01 3.5636291205437454e-01  0.0000000000000000e+00 8.0514596614593092e-01 3.5999810528909515e-01  0.0000000000000000e+00 5.8279014775402671e-01 7.0194300330721626e-01  0.0000000000000000e+00 2.0304601546753811e-02 5.2250710523459920e-01  0.0000000000000000e+00 7.9255396837966596e-01 3.8163082612081184e-01  0.0000000000000000e+00 8.1215791639444046e-01 3.4783072277096855e-01  0.0000000000000000e+00 6.4679705162808609e-01 6.1241900492685952e-01  0.0000000000000000e+00 5.2818761588960916e-01 7.7207622842737988e-01  0.0000000000000000e+00 6.9000076640183861e-01 5.4776547059949909e-01  0.0000000000000000e+00 7.2030747153904295e-01 5.0052826739866574e-01  0.0000000000000000e+00 8.2512183827594465e-01 3.2511426612629973e-01  0.0000000000000000e+00 8.2265907140228411e-01 3.2945232723735679e-01  0.0000000000000000e+00 2.5317848577494719e-02 6.2018784983020858e-01  0.0000000000000000e+00 2.0199239125786621e-02 5.1938000322718803e-01  0.0000000000000000e+00 5.8366973473728434e-01 7.0072983888838225e-01  0.0000000000000000e+00 6.4642931064529507e-01 6.1294668717133038e-01  0.0000000000000000e+00 4.3138177812904688e-01 8.8066982303076302e-01  0.0000000000000000e+00 8.5802603991453549e-02 9.4344258083244092e-01  0.0000000000000000e+00 4.2059132554641265e-01 8.9131713170280025e-01  0.0000000000000000e+00 2.3854652410375282e-01 1.0133997872023937e+00  0.0000000000000000e+00 1.7042308876244674e-01 1.0146638816016982e+00  0.0000000000000000e+00 8.7821504189520960e-01 2.2859640410879656e-01  0.0000000000000000e+00 1.7634136607925940e-02 4.3921753047389889e-01  0.0000000000000000e+00 3.0419877287770281e-02 6.8683123982966643e-01  0.0000000000000000e+00 6.6603141831549229e-01 5.8410500636394402e-01  0.0000000000000000e+00 6.5799529775475551e-01 5.9595169521080582e-01  0.0000000000000000e+00 8.2226389486581197e-01 3.3014495600341182e-01  0.0000000000000000e+00 8.4136170510866948e-01 2.9621520042951477e-01  0.0000000000000000e+00 8.4266625316899357e-01 2.9386920966173907e-01  0.0000000000000000e+00 3.2012606536749871e-01 9.7447800045373123e-01  0.0000000000000000e+00 5.0819696609547071e-01 7.9631296175620747e-01  0.0000000000000000e+00 2.8342730983721082e-01 9.9629439128323172e-01  0.0000000000000000e+00 8.0235711915422847e-01 3.6481367186075186e-01  0.0000000000000000e+00 8.1974888898975140e-01 3.3456594203100815e-01  0.0000000000000000e+00 4.8894685521973645e-02 8.2270030157055307e-01  0.0000000000000000e+00 6.4132483530248441e-01 6.2034783892881040e-01  0.0000000000000000e+00 6.3124945500155183e-01 6.3485083219035376e-01  0.0000000000000000e+00 5.9424115095073315e-01 6.8647293324254743e-01  0.0000000000000000e+00 8.1315079434494220e-01 3.4609959004493474e-01  0.0000000000000000e+00 8.3096611231967588e-01 3.1477243310579200e-01  0.0000000000000000e+00 7.9399708118512236e-01 3.7916471473025115e-01  0.0000000000000000e+00 7.2495857866158597e-01 4.9313962453173965e-01  0.0000000000000000e+00 7.5086214457917033e-01 4.5130701366856524e-01  0.0000000000000000e+00 2.0398730035883030e-02 5.2397354936875540e-01  0.0000000000000000e+00 2.6779472953312355e-02 6.3975534622555086e-01  0.0000000000000000e+00 1.7800047467985546e-02 4.4626862618135710e-01  0.0000000000000000e+00 3.5737668037877250e-02 7.3728140964398825e-01  0.0000000000000000e+00 5.9069098867404170e-02 8.6566300955579834e-01  0.0000000000000000e+00 2.2208667351666097e-02 5.6447377922993480e-01  0.0000000000000000e+00 2.9950455715675373e-01 9.8695394313852458e-01  0.0000000000000000e+00 3.7911895699830001e-01 9.2944704147975199e-01  0.0000000000000000e+00 3.5783316219840400e-01 9.4677245527418208e-01  0.0000000000000000e+00 4.3461552852641305e-01 8.7739113316755313e-01  0.0000000000000000e+00 5.0026941252409884e-01 8.0562610285304992e-01  0.0000000000000000e+00 5.2606164781318643e-01 7.7475034476166071e-01  0.0000000000000000e+00 2.2264743207222898e-01 1.0182641240671608e+00  0.0000000000000000e+00 7.1669825875260051e-01 5.0623815979900255e-01  0.0000000000000000e+00 7.3742125954916771e-01 4.7315917444968719e-01  0.0000000000000000e+00 8.1423917827659842e-01 3.4419939423073631e-01  0.0000000000000000e+00 1.7041937175252303e-01 1.0152092076931014e+00  0.0000000000