<?xml version="1.0"?>
<VTKFile type="UnstructuredGrid"  version="0.1"  >
<UnstructuredGrid>
<Piece  NumberOfPoints="645" NumberOfCells="1208">
<Points>
<DataArray  type="Float64"  NumberOfComponents="3"  format="ascii">500 250 0  0 250 0  250 500 0  250 0 0  269.6147739849193 499.2293334291141 0  289.1086163645346 496.9220851322369 0  308.3613411380662 493.0924800576239 0  327.2542488153708 487.7641290017751 0  345.6708583410312 480.9698830243682 0  363.4976252268579 472.7516308983252 0  380.6246415053586 463.1600408885224 0  396.9463134355418 452.2542483304208 0  412.3620124901979 440.1014910518401 0  426.7766957038264 426.7766948894474 0  440.1014917275007 412.3620116991009 0  452.2542488669409 396.9463126970852 0  463.1600413033558 380.6246408284121 0  472.751631216677 363.4976246020575 0  480.9698832532689 345.6708577884161 0  487.7641291438106 327.2542483782306 0  493.0924801408104 308.3613407915692 0  496.9220851690424 289.1086161321545 0  499.2293334387019 269.6147738630947 0  499.229333430357 230.3852260308728 0  496.9220851356368 210.8913836569316 0  493.0924800663345 191.6386588982162 0  487.7641290184218 172.7457512358624 0  480.9698830399936 154.3291416966919 0  472.7516309070343 136.5023747902346 0  463.1600408987175 119.3753585112783 0  452.2542483410546 103.0536865790945 0  440.1014910714183 87.63798753272525 0  426.7766948943133 73.22330430103958 0  412.3620117009348 59.89850827406559 0  396.9463126913573 47.74575112889752 0  380.6246408261736 36.83995869527249 0  363.4976245953484 27.24836877990464 0  345.6708577827026 19.03011674436451 0  327.2542483716913 12.23587085406467 0  308.361340780398 6.907519856507577 0  289.1086161262194 3.077914830017676 0  269.6147738583604 0.7706665609254912 0  230.3852260302092 0.7706665696952655 0  210.8913836535466 3.077914864899299 0  191.6386589008631 6.907519933030017 0  172.7457512318028 12.23587098289721 0  154.3291416990867 19.03011695901438 0  136.5023748091553 27.24836908332517 0  119.3753585100802 36.83995910201668 0  103.0536865836863 47.74575165560921 0  87.6379875279894 59.89850893262656 0  73.22330429312285 73.2233051136034 0  59.89850825318987 87.6379883235075 0  47.74575112052588 103.0536873201654 0  36.83995867902311 119.375359200343 0  27.24836876726107 136.502375429466 0  19.03011674184958 154.3291422233689 0  12.23587084468659 172.7457516571714 0  6.90751985664113 191.6386592190457 0  3.07791483051173 210.8913838706611 0  0.7706665612319625 230.3852261377458 0  0.770666570878916 269.6147739848303 0  3.077914868063033 289.1086163664283 0  6.907519941211973 308.3613411332171 0  12.23587099861078 327.2542488165586 0  19.03011697319531 345.6708583351491 0  27.24836908997781 363.4976252039013 0  36.83995910945072 380.624641502051 0  47.74575166272689 396.9463134261104 0  59.89850895284744 412.3620124956862 0  73.223305118437 426.7766957117107 0  87.63798832904175 440.1014917515369 0  103.0536873198473 452.2542488792431 0  119.3753591950333 463.1600413177231 0  136.502375416904 472.7516312263383 0  154.3291422204512 480.9698832569418 0  172.7457516527922 487.7641291538905 0  191.6386592093489 493.0924801410308 0  210.891383865478 496.9220851686673 0  230.38522613373 499.229333438452 0  408.0297414380137 79.04438812052823 0  470.6929872351991 328.8394125533284 0  327.5791944935511 30.66901791634585 0  186.8066927430735 474.0665667617239 0  241.1725543363619 17.80467707257488 0  481.8957906849985 237.8895419164845 0  241.9028711997863 481.7677876757489 0  22.04240264610397 260.0195362144032 0  66.93524317993541 393.9967576354165 0  407.5748062742585 421.804202868455 0  91.14498776833713 78.15950434153694 0  443.5721620986452 120.6592159456753 0  47.90357490700103 137.2584608638679 0  121.9854148726425 53.89110248018969 0  346.0986346915193 460.9657062005573 0  37.15978683308909 348.686261000426 0  443.2617512614241 379.6653657108164 0  469.6395010170255 166.6128966790255 0  169.4214360799271 31.58224567687904 0  120.0926710183088 443.0188983543295 0  25.93343325113663 186.8066927541892 0  294.4711068775667 479.0497777351075 0  25.93343346326644 313.1933076022177 0  379.5895462631086 444.9259942605202 0  477.3836837079734 202.381284598844 0  91.97025859159305 420.9556118868529 0  201.8099842058005 21.62718472283686 0  378.9340731306958 56.62233582097542 0  452.9866090845981 363.3843712213892 0  433.7891058935094 362.712636160478 0  423.9473865733744 379.4564211535431 0  414.2436151024774 362.5677032958672 0  424.001708291139 345.6669244533275 0  404.4610922180836 345.5134771956895 0  414.341417486195 328.5773255591307 0  394.7677429029752 328.480795053565 0  404.6609853910698 311.5262601202149 0  385.031291303632 311.4357195826571 0  375.101270673993 328.3607598117625 0  365.3740866097247 311.3257829175604 0  355.5083459394236 328.2997490723603 0  345.7718933714782 311.2546684470915 0  335.8786468089485 328.2092240351425 0  326.1421942370671 311.1641433897183 0  336.003344415795 294.1838138923774 0  316.3860344407723 294.1066032295112 0  306.5124951000444 311.0736183338123 0  296.7501789069282 294.0121813369556 0  306.6515351153541 277.0655652779993 0  287.0395899630898 276.98345703061 0  296.9328365330605 260.0289014374702 0  277.2982248613483 259.9358158720167 0  267.3990712864435 276.8845676964974 0  257.6713884944854 259.8456251093223 0  267.5666848269919 242.8932957192846 0  247.9365419809313 242.8056592582466 0  238.0437391039621 259.7573262582974 0  257.8302322568193 225.8482150584726 0  238.2005331082895 225.757689997251 0  248.0937796848919 208.8031343943687 0  267.7234788341136 208.8936594571897 0  228.4640805329348 208.712609333587 0  257.9870262635756 191.8485787959149 0  394.9245487736064 294.4811717944075 0  277.6167254091284 191.9391038586934 0  267.8802728403858 174.8940232011079 0  287.5005584344734 175.0117093161379 0  277.7685743892544 157.9663496219783 0  258.1421294336732 157.8702099927723 0  268.0370668499073 140.8943869520292 0  248.4073677066822 140.803861887803 0  297.4032185518097 158.029992671988 0  307.1396711152761 175.0750733211352 0  317.0329176840529 158.1205177336628 0  326.7693702482894 175.1655983760161 0  336.6626168121476 158.2110427905018 0  346.3990693731281 175.2561234311168 0  326.9054332650823 141.220514475552 0  258.300614283603 123.8493062912708 0  238.6709151364965 123.7587812267517 0  345.602770870788 345.2345146507195 0  228.7776685563935 140.7133368276114 0  219.0412159824577 123.6682561607107 0  209.1548086869 140.6568288028854 0  199.4115168211257 123.5777310947873 0  189.5182702336654 140.5322867083881 0  414.5061001206328 294.5791962676446 0  404.8178099709576 277.5266248278496 0  179.7818176563396 123.4872060318257 0  169.8885710669681 140.4417616462852 0  356.2923159345929 158.3015678516131 0  366.0287684987967 175.3466484913704 0  356.1355219340599 192.3012040743702 0  375.7652210728186 192.3917291327877 0  209.3047634085723 106.6231754828329 0  365.8719745031602 209.3462847214261 0  385.4473336989289 209.4589172776483 0  325.9854002589402 345.1637796339881 0  335.7218528424219 362.2088602706556 0  316.0921537106989 362.1183352318304 0  325.8286062932657 379.163415866528 0  306.198907162322 379.0728908286862 0  296.4624545814172 362.0278101960448 0  286.5692080329665 378.982365791018 0  276.8327554515532 361.9372851563691 0  266.939508902649 378.8918407521974 0  257.2030563201347 361.8467601163857 0  247.3098097697766 378.8013157143188 0  237.5733571858447 361.7562350760078 0  227.6801106339195 378.7107906764817 0  217.943658048477 361.6657100354885 0  208.0504114944145 378.6202656389371 0  198.313958909151 361.5751849900388 0  257.046262353733 395.8463963506437 0  188.4207123491114 378.5297405967377 0  178.6942702061005 361.4572585380363 0  188.5775063311286 344.5301043308571 0  168.9825719925815 344.3679587423489 0  178.862757141982 327.4597476508416 0  159.2319047656242 327.3721603214715 0  169.1046011625246 310.4399430048529 0  149.4749020045267 310.3494179549329 0  159.3681485763936 293.3948623397931 0  139.7621343179957 293.2923655078865 0  149.6316959897331 276.3497816754953 0  130.001996832586 276.2592566257254 0  139.8952434039481 259.3047010132285 0  120.2655442487169 259.2141759632096 0  130.1587908193085 242.2596203521963 0  110.5290916658602 242.1690953021686 0  120.4223382355493 225.2145396926986 0  139.5816554329651 327.3039735703393 0  140.0520373886098 225.3050647418833 0  100.6358450969261 259.1236509112424 0  217.7868640819771 395.665346280658 0  168.7910131993309 378.4392155450739 0  178.5274657798013 395.4842962032838 0  90.89939251396862 242.0785702520503 0  120.1087502632246 293.2138122376823 0  198.4827020443107 327.560288315778 0  130.3155848042933 208.2599840821261 0  110.6858856511 208.169459032866 0  120.5791322200218 191.2149034219518 0  179.6250236464644 157.4868423201703 0  248.5641617155314 106.8042256262046 0  268.1938608640521 106.8947506897054 0  218.5708339532014 225.6671649402842 0  296.3097884844733 395.9656221920631 0  160.1521184905691 123.396680968142 0  170.0453650783119 106.4421253476802 0  385.658427623638 175.451920499978 0  81.00614594559451 259.0331258609116 0  101.0554053508192 191.1247040573367 0  110.8426796353596 174.1698227613512 0  258.4574082944565 89.84967002797657 0  278.0871074405096 89.94019509160398 0  345.4583054269535 379.2539409100921 0  335.5650588729622 396.2084965020994 0  71.26969336281471 241.9880452024695 0  316.8761236845766 192.1201539629169 0  316.5489845965977 260.1172740927201 0  247.4666037372683 344.8016794754746 0  169.261395148653 276.4403067246208 0  424.4475090085939 277.6171671056567 0  477.5061263880716 295.9860753924438 0  297.7010004405789 21.78753761157149 0  152.5329738481066 461.4223243306178 0  158.8977666313233 395.3937711508539 0  18.80645331331318 222.6364406178562 0  91.05618649809102 208.0789339835232 0  67.55529962754241 105.2642692875928 0  268.3506548722531 72.89511443289081 0  248.7209557265558 72.80458936723331 0  414.7110714038412 260.5720779140291 0  375.5311866215619 226.3973061791794 0  385.1881
[...]
<PointData  Vectors="f_12"> 
<DataArray  type="Float64"  Name="f_12"  NumberOfComponents="3" format="ascii">0.0000000000000000e+00 3.3347982386925101e-01 9.6476076535892652e-01  0.0000000000000000e+00 6.2018107628423380e-01 6.5046411632061985e-01  0.0000000000000000e+00 1.5312980413206839e-02 2.8450475680234028e-01  0.0000000000000000e+00 8.9246847786536720e-01 2.0155385769528025e-01  0.0000000000000000e+00 1.5297922255285701e-02 2.7930613242667685e-01  0.0000000000000000e+00 1.5300326513124169e-02 2.8005419073146315e-01  0.0000000000000000e+00 1.5323078187794145e-02 2.8725670149176541e-01  0.0000000000000000e+00 1.5392085092518899e-02 3.0122240113629112e-01  0.0000000000000000e+00 1.5534915340888205e-02 3.1996174123222437e-01  0.0000000000000000e+00 1.5771695515630662e-02 3.4195331446140859e-01  0.0000000000000000e+00 1.6147579061440955e-02 3.6822582885140431e-01  0.0000000000000000e+00 1.6813967225279499e-02 4.0435165197577894e-01  0.0000000000000000e+00 1.8008264187383414e-02 4.5325028107673943e-01  0.0000000000000000e+00 1.9962696339955458e-02 5.1196523101596947e-01  0.0000000000000000e+00 2.2938581176259017e-02 5.7697499876337910e-01  0.0000000000000000e+00 2.7960085489166550e-02 6.5478575683751694e-01  0.0000000000000000e+00 3.7019333417097885e-02 7.4455353236684996e-01  0.0000000000000000e+00 5.1254319334781050e-02 8.2994056606049560e-01  0.0000000000000000e+00 7.4879112711136619e-02 9.1087077658534554e-01  0.0000000000000000e+00 1.0913243603982715e-01 9.7203908920042237e-01  0.0000000000000000e+00 1.5350973937189491e-01 1.0080345038153964e+00  0.0000000000000000e+00 2.0822844645054142e-01 1.0176095377270753e+00  0.0000000000000000e+00 2.7158729748670718e-01 1.0008185126325839e+00  0.0000000000000000e+00 4.0022932441490022e-01 9.1029084692476447e-01  0.0000000000000000e+00 4.6225070477884717e-01 8.4818450883510921e-01  0.0000000000000000e+00 5.2128011535283791e-01 7.8040512493789960e-01  0.0000000000000000e+00 5.7663841069775812e-01 7.1011167583660195e-01  0.0000000000000000e+00 6.2632792851439889e-01 6.4182918653115117e-01  0.0000000000000000e+00 6.7129773942921001e-01 5.7613189956483235e-01  0.0000000000000000e+00 7.0921694880084285e-01 5.1799283035218580e-01  0.0000000000000000e+00 7.4368238216874449e-01 4.6302543130964663e-01  0.0000000000000000e+00 7.7356633162382926e-01 4.1375192255567356e-01  0.0000000000000000e+00 7.9833589805799854e-01 3.7173115789682609e-01  0.0000000000000000e+00 8.1837619141696605e-01 3.3698985452311497e-01  0.0000000000000000e+00 8.3619371179243085e-01 3.0547347643162043e-01  0.0000000000000000e+00 8.5057630489969904e-01 2.7961375098715913e-01  0.0000000000000000e+00 8.6212167621009317e-01 2.5852445379180145e-01  0.0000000000000000e+00 8.7202182331104283e-01 2.4023116023775801e-01  0.0000000000000000e+00 8.7933069137286557e-01 2.2654972181872809e-01  0.0000000000000000e+00 8.8455521199414311e-01 2.1666725764542968e-01  0.0000000000000000e+00 8.8894478730071425e-01 2.0831614192917697e-01  0.0000000000000000e+00 8.9227362480627481e-01 2.0194949672340443e-01  0.0000000000000000e+00 8.9345746402822435e-01 1.9966076358808066e-01  0.0000000000000000e+00 8.9257506765801820e-01 2.0135464595977473e-01  0.0000000000000000e+00 8.9055386525633740e-01 2.0522485094904258e-01  0.0000000000000000e+00 8.8838765714576740e-01 2.0937730787054484e-01  0.0000000000000000e+00 8.8498684322352084e-01 2.1585752114250303e-01  0.0000000000000000e+00 8.7983243107940801e-01 2.2559539466911702e-01  0.0000000000000000e+00 8.7393925335964129e-01 2.3664995746494105e-01  0.0000000000000000e+00 8.6678184223478194e-01 2.4994394139163059e-01  0.0000000000000000e+00 8.5846010250092919e-01 2.6524669259931166e-01  0.0000000000000000e+00 8.4935993115142572e-01 2.8181870837109751e-01  0.0000000000000000e+00 8.3846476319237473e-01 3.0142912521664650e-01  0.0000000000000000e+00 8.2539931171048564e-01 3.2463964556774560e-01  0.0000000000000000e+00 8.1146216971599472e-01 3.4904475669335094e-01  0.0000000000000000e+00 7.9527567005271227e-01 3.7702294727024760e-01  0.0000000000000000e+00 7.7460343991455449e-01 4.1198381692067143e-01  0.0000000000000000e+00 7.5322113036729621e-01 4.4743932237726186e-01  0.0000000000000000e+00 7.2760341710007415e-01 4.8888186211342821e-01  0.0000000000000000e+00 6.9731607804070939e-01 5.3646928317814158e-01  0.0000000000000000e+00 6.6203355017431542e-01 5.8993576518023905e-01  0.0000000000000000e+00 5.7737041080713769e-01 7.0914602626725487e-01  0.0000000000000000e+00 5.2053864175177189e-01 7.8135175647214261e-01  0.0000000000000000e+00 4.6086656760518191e-01 8.4964825752961859e-01  0.0000000000000000e+00 3.9326466109345137e-01 9.1691245436090352e-01  0.0000000000000000e+00 3.2209697425456540e-01 9.7243303673406289e-01  0.0000000000000000e+00 2.4938857018857552e-01 1.0096469988514651e+00  0.0000000000000000e+00 1.8293196413708460e-01 1.0174038874176095e+00  0.0000000000000000e+00 1.2417169457558933e-01 9.8920534368169089e-01  0.0000000000000000e+00 8.0554660039612522e-02 9.2523267271878096e-01  0.0000000000000000e+00 5.0923976101322654e-02 8.2990958848354957e-01  0.0000000000000000e+00 3.4880022825408898e-02 7.2812847317081464e-01  0.0000000000000000e+00 2.5701121312358532e-02 6.2420069620637519e-01  0.0000000000000000e+00 2.0935583974756800e-02 5.3628198899236501e-01  0.0000000000000000e+00 1.8376223889622293e-02 4.6601049179852611e-01  0.0000000000000000e+00 1.6848356169103441e-02 4.0603445468669269e-01  0.0000000000000000e+00 1.6103367538363781e-02 3.6566011986653257e-01  0.0000000000000000e+00 1.5709033878140904e-02 3.3668541884379538e-01  0.0000000000000000e+00 1.5484277396864733e-02 3.1401425228814633e-01  0.0000000000000000e+00 1.5362861722287117e-02 2.9638491756158014e-01  0.0000000000000000e+00 8.0386128678260971e-01 3.6220794326747224e-01  0.0000000000000000e+00 9.6368415923806017e-02 9.5364636522448853e-01  0.0000000000000000e+00 8.7007872587082247e-01 2.4378754917254108e-01  0.0000000000000000e+00 1.5959270971927123e-02 3.5572239813784312e-01  0.0000000000000000e+00 8.8613033527602103e-01 2.1362308065685290e-01  0.0000000000000000e+00 3.7673367410357522e-01 9.3053787509618613e-01  0.0000000000000000e+00 1.5362534000520673e-02 2.9600874311812936e-01  0.0000000000000000e+00 5.8479173796655115e-01 6.9910403317975733e-01  0.0000000000000000e+00 1.0019305721771041e-01 9.6102579064626292e-01  0.0000000000000000e+00 1.9017427479921311e-02 4.8549189270352522e-01  0.0000000000000000e+00 8.4768249565617326e-01 2.8482871147846034e-01  0.0000000000000000e+00 7.2378387688316681e-01 4.9502435940236339e-01  0.0000000000000000e+00 7.9328882755475549e-01 3.8039476638125153e-01  0.0000000000000000e+00 8.6517003108329560e-01 2.5288554939417773e-01  0.0000000000000000e+00 1.5695728281278565e-02 3.3545422308009215e-01  0.0000000000000000e+00 2.8039125203228066e-01 9.9629934817932608e-01  0.0000000000000000e+00 3.2260536541558235e-02 7.0305928000407003e-01  0.0000000000000000e+00 6.0563227032179690e-01 6.7083515944951133e-01  0.0000000000000000e+00 8.7968555149844441e-01 2.2584237114772812e-01  0.0000000000000000e+00 2.3433927396730538e-02 5.8628103104365292e-01  0.0000000000000000e+00 7.3247822118282768e-01 4.8111456444318018e-01  0.0000000000000000e+00 1.5327705933363165e-02 2.8854457780285409e-01  0.0000000000000000e+00 4.2104841634186646e-01 8.9080839729329520e-01  0.0000000000000000e+00 1.6517470846472995e-02 3.8935531658488737e-01  0.0000000000000000e+00 4.9610399529894766e-01 8.1037737470517068e-01  0.0000000000000000e+00 4.2078692415164071e-02 7.8090220435144275e-01  0.0000000000000000e+00 8.8509410591233595e-01 2.1559207395215768e-01  0.0000000000000000e+00 8.3792744785438911e-01 3.0238185948716062e-01  0.0000000000000000e+00 4.4097327605455913e-02 7.9285401502163166e-01  0.0000000000000000e+00 4.0173624522821173e-02 7.6843641449171673e-01  0.0000000000000000e+00 2.9260831607666418e-02 6.7122066320844398e-01  0.0000000000000000e+00 3.7923930732080280e-02 7.5330360830803333e-01  0.0000000000000000e+00 5.6232605632111708e-02 8.5311337159701128e-01  0.0000000000000000e+00 5.6520491152894418e-02 8.5528428642190990e-01  0.0000000000000000e+00 8.7596564329930557e-02 9.4082204907626832e-01  0.0000000000000000e+00 9.3513118830961070e-02 9.5243713147524545e-01  0.0000000000000000e+00 1.4080159173757270e-01 1.0033927511350622e+00  0.0000000000000000e+00 1.5657614676652171e-01 1.0122295247080255e+00  0.0000000000000000e+00 1.0341219923114445e-01 9.6847792629312313e-01  0.0000000000000000e+00 1.7668027816001608e-01 1.0187011406881268e+00  0.0000000000000000e+00 1.1639236195755984e-01 9.8501008305825011e-01  0.0000000000000000e+00 1.9833288503424326e-01 1.0207475261770127e+00  0.0000000000000000e+00 1.3182092711151230e-01 9.9951333902591211e-01  0.0000000000000000e+00 2.1865270480198967e-01 1.0188477209708366e+00  0.0000000000000000e+00 2.9034009594228938e-01 9.9257629304109474e-01  0.0000000000000000e+00 3.0608282509297724e-01 9.8338393284129566e-01  0.0000000000000000e+00 2.3498878214192095e-01 1.0151277822587901e+00  0.0000000000000000e+00 3.1786827022026859e-01 9.7592285458700445e-01  0.0000000000000000e+00 3.8560454226148805e-01 9.2380679093650686e-01  0.0000000000000000e+00 3.9638983450136245e-01 9.1418783826522310e-01  0.0000000000000000e+00 4.5862605447804594e-01 8.5233021117282015e-01  0.0000000000000000e+00 4.6730167688166946e-01 8.4291912990311302e-01  0.0000000000000000e+00 4.0525629668356916e-01 9.0602201752715905e-01  0.0000000000000000e+00 4.7418171230465161e-01 8.3532750163597180e-01  0.0000000000000000e+00 5.3077161768338765e-01 7.6893850216054360e-01  0.0000000000000000e+00 5.3637011252770339e-01 7.6199216488750865e-01  0.0000000000000000e+00 4.7982149344910885e-01 8.2902609207117095e-01  0.0000000000000000e+00 5.8507682172470266e-01 6.9887217661078238e-01  0.0000000000000000e+00 5.8939916097100364e-01 6.9304589167952979e-01  0.0000000000000000e+00 6.3345924108167251e-01 6.3168542140074124e-01  0.0000000000000000e+00 6.2902251459642766e-01 6.3802771098774613e-01  0.0000000000000000e+00 6.3700857465748995e-01 6.2658530232430265e-01  0.0000000000000000e+00 6.7136751992493693e-01 5.7604454016287354e-01  0.0000000000000000e+00 2.1673682083813928e-01 1.0186173495990305e+00  0.0000000000000000e+00 6.6715762825135150e-01 5.8234985415267670e-01  0.0000000000000000e+00 7.0466738525390149e-01 5.2511017162577012e-01  0.0000000000000000e+00 7.0013597885525580e-01 5.3215254048157212e-01  0.0000000000000000e+00 7.3436712112106550e-01 4.7808119292249290e-01  0.0000000000000000e+00 7.3776501422707852e-01 4.7260379059491536e-01  0.0000000000000000e+00 7.6293187678458629e-01 4.3144039521449806e-01  0.0000000000000000e+00 7.6562129565730175e-01 4.2697943517127573e-01  0.0000000000000000e+00 7.2999432656879826e-01 4.8510103471256932e-01  0.0000000000000000e+00 6.9449677231928275e-01 5.4086785308645202e-01  0.0000000000000000e+00 7.2430407138773212e-01 4.9418660953704380e-01  0.0000000000000000e+00 6.8740966904605061e-01 5.5174455119427268e-01  0.0000000000000000e+00 7.1709918251166971e-01 5.0561148618878782e-01  0.0000000000000000e+00 6.7873024549191630e-01 5.6494961263829990e-01  0.0000000000000000e+00 7.4947628925707466e-01 4.5357953603267837e-01  0.0000000000000000e+00 7.8873892833321091e-01 3.8813159427315796e-01  0.0000000000000000e+00 7.9088197928579773e-01 3.8448332096757348e-01  0.0000000000000000e+00 7.0002971052961036e-02 9.0362736898397034e-01  0.0000000000000000e+00 7.6770640219556341e-01 4.2351263910972864e-01  0.0000000000000000e+00 7.9249844809231818e-01 3.8172626274677152e-01  0.0000000000000000e+00 7.6932662670132146e-01 4.2081348155177223e-01  0.0000000000000000e+00 7.9375152868573173e-01 3.7958557050916863e-01  0.0000000000000000e+00 7.7079400200433035e-01 4.1836496479967034e-01  0.0000000000000000e+00 1.9614174135021059e-01 1.0194262755708403e+00  0.0000000000000000e+00 2.7989722725121108e-01 9.9788933350027176e-01  0.0000000000000000e+00 7.9485714012910280e-01 3.7769427179276011e-01  0.0000000000000000e+00 7.7216511097516316e-01 4.1607391121906856e-01  0.0000000000000000e+00 7.0820945784528477e-01 5.1958498734564984e-01  0.0000000000000000e+00 6.6818361302076545e-01 5.8082279597396047e-01  0.0000000000000000e+00 6.3469061904927793e-01 6.2992614061017249e-01  0.0000000000000000e+00 6.2113576660248904e-01 6.4922145432676637e-01  0.0000000000000000e+00 8.1307973618139906e-01 3.4622503910542451e-01  0.0000000000000000e+00 5.8246198709649555e-01 7.0239102261087960e-01  0.0000000000000000e+00 5.6653567900217772e-01 7.2347494144398106e-01  0.0000000000000000e+00 7.7424209962106846e-02 9.2379238491138260e-01  0.0000000000000000e+00 4.1482460152167486e-02 7.8270936658042456e-01  0.0000000000000000e+00 4.4034947188726151e-02 7.9967529964539008e-01  0.0000000000000000e+00 2.7450243452588882e-02 6.5225291012055464e-01  0.0000000000000000e+00 2.8218415259535012e-02 6.6280221099091030e-01  0.0000000000000000e+00 4.6974978993273915e-02 8.1735936565003109e-01  0.0000000000000000e+00 2.9093191707473515e-02 6.7407434416744372e-01  0.0000000000000000e+00 5.0173058779055230e-02 8.3456139538783158e-01  0.0000000000000000e+00 3.0090298924609446e-02 6.8608798829051321e-01  0.0000000000000000e+00 5.3592388784379441e-02 8.5067729861737440e-01  0.0000000000000000e+00 3.1427567458453640e-02 7.0092013798064612e-01  0.0000000000000000e+00 5.7665936338326125e-02 8.6714293730825520e-01  0.0000000000000000e+00 3.3464009602680880e-02 7.2123376307291409e-01  0.0000000000000000e+00 6.2995099423490228e-02 8.8543182310186619e-01  0.0000000000000000e+00 3.6606229112427870e-02 7.4832508029486611e-01  0.0000000000000000e+00 6.9807010581123374e-02 9.0504764233269341e-01  0.0000000000000000e+00 2.2004362325945593e-02 5.6169568101616807e-01  0.0000000000000000e+00 4.1106512905154546e-02 7.8050596810522199e-01  0.0000000000000000e+00 7.7978325044131075e-02 9.2469143430937395e-01  0.0000000000000000e+00 1.3481872362579708e-01 1.0016687578541721e+00  0.0000000000000000e+00 1.4436835821692118e-01 1.0071976103734797e+00  0.0000000000000000e+00 2.1454087259535423e-01 1.0189657012515467e+00  0.0000000000000000e+00 2.2469869142129370e-01 1.0172792248753881e+00  0.0000000000000000e+00 2.9577278922085809e-01 9.8928611203383288e-01  0.0000000000000000e+00 3.0640519555815104e-01 9.8305980673333349e-01  0.0000000000000000e+00 3.7224852912165290e-01 9.3517363544786836e-01  0.0000000000000000e+00 3.8270925809336243e-01 9.2622506880384137e-01  0.0000000000000000e+00 4.4397710916971628e-01 8.6772879404681291e-01  0.0000000000000000e+00 4.5316147848145533e-01 8.5808177795956420e-01  0.0000000000000000e+00 5.0772971385531807e-01 7.9678496671744747e-01  0.0000000000000000e+00 5.1638739367852970e-01 7.8643642747289277e-01  0.0000000000000000e+00 5.6496842346455722e-01 7.2547708983777859e-01  0.0000000000000000e+00 5.7249628570450428e-01 7.1559373117466141e-01  0.0000000000000000e+00 6.1429280299194355e-01 6.5880093538886164e-01  0.0000000000000000e+00 2.3708275748196095e-01 1.0143473815562403e+00  0.0000000000000000e+00 6.0848027203096133e-01 6.6689929366322986e-01  0.0000000000000000e+00 5.2689980143586335e-01 7.7365695204879958e-01  0.0000000000000000e+00 2.4065485229381841e-02 6.0048191455205302e-01  0.0000000000000000e+00 4.7071768796195131e-02 8.1497881245365322e-01  0.0000000000000000e+00 2.8773992272143077e-02 6.6854160364766502e-01  0.0000000000000000e+00 5.8158681937778112e-01 7.0351525319036812e-01  0.0000000000000000e+00 3.9506146415496612e-01 9.1526105663257151e-01  0.0000000000000000e+00 2.0627379966848022e-01 1.0198099252522150e+00  0.0000000000000000e+00 6.5340094957946437e-01 6.0272414042198197e-01  0.0000000000000000e+00 6.5849975327323795e-01 5.9520448082541255e-01  0.0000000000000000e+00 6.9128884298360949e-01 5.4579091706135252e-01  0.0000000000000000e+00 7.4565183299396109e-01 4.5981467463357106e-01  0.0000000000000000e+00 8.1028241619761376e-01 3.5109336456679741e-01  0.0000000000000000e+00 8.0824396365214268e-01 3.5463273233278675e-01  0.0000000000000000e+00 5.9304432056184486e-01 6.8810398188754740e-01  0.0000000000000000e+00 2.1142685345456037e-02 5.4287674547576770e-01  0.0000000000000000e+00 7.9594675176028373e-01 3.7582824101001244e-01  0.0000000000000000e+00 8.1501422808272928e-01 3.4285014719714701e-01  0.0000000000000000e+00 6.5549446536506306e-01 5.9966482353219086e-01  0.0000000000000000e+00 5.3929740016439320e-01 7.5828383310976799e-01  0.0000000000000000e+00 6.9600680099960821e-01 5.3852646887750777e-01  0.0000000000000000e+00 7.2557926540707429e-01 4.9214759457237311e-01  0.0000000000000000e+00 8.2786055479829035e-01 3.2027601023190799e-01  0.0000000000000000e+00 8.2545869465870803e-01 3.2451883386527508e-01  0.0000000000000000e+00 2.6901880958829991e-02 6.4410898128655802e-01  0.0000000000000000e+00 2.0794039478524973e-02 5.3422441831442524e-01  0.0000000000000000e+00 5.9254227126409087e-01 6.8875440396041798e-01  0.0000000000000000e+00 6.5473800001066262e-01 6.0077214027872072e-01  0.0000000000000000e+00 4.4778103597689245e-01 8.6382900689308784e-01  0.0000000000000000e+00 1.1186423853439992e-01 9.8239409882430562e-01  0.0000000000000000e+00 4.3640394284563916e-01 8.7552948934288710e-01  0.0000000000000000e+00 2.5607462246008361e-01 1.0078668406841975e+00  0.0000000000000000e+00 1.7795595303804540e-01 1.0164067226275213e+00  0.0000000000000000e+00 8.7963537367030908e-01 2.2592370583466162e-01  0.0000000000000000e+00 1.7670177648006505e-02 4.4060522609574210e-01  0.0000000000000000e+00 3.2691444274425274e-02 7.1095032941284453e-01  0.0000000000000000e+00 6.7234861691391778e-01 5.7463472216331912e-01  0.0000000000000000e+00 6.6477265008670416e-01 5.8589226463257615e-01  0.0000000000000000e+00 8.2468871077521466e-01 3.2587470601967594e-01  0.0000000000000000e+00 8.4361199167468237e-01 2.9216953454913464e-01  0.0000000000000000e+00 8.4486221099338665e-01 2.8991537842821563e-01  0.0000000000000000e+00 3.4057936926810395e-01 9.6028084571699235e-01  0.0000000000000000e+00 5.2257456596209151e-01 7.7900663845990870e-01  0.0000000000000000e+00 3.0798399572491758e-01 9.8249139286132681e-01  0.0000000000000000e+00 8.0554997830099151e-01 3.5929908480161959e-01  0.0000000000000000e+00 8.2260958088305047e-01 3.2953965541492047e-01  0.0000000000000000e+00 5.5081317026963734e-02 8.5146394938553138e-01  0.0000000000000000e+00 6.4925893139819690e-01 6.0879934700013461e-01  0.0000000000000000e+00 6.4001507303286465e-01 6.2224584569814279e-01  0.0000000000000000e+00 6.0377441108871821e-01 6.7341040602684965e-01  0.0000000000000000e+00 8.1594481062541668e-01 3.4122301073764960e-01  0.0000000000000000e+00 8.3347890349181752e-01 3.1030619520781394e-01  0.0000000000000000e+00 7.9727361671253005e-01 3.7355307826849093e-01  0.0000000000000000e+00 7.2994233691686539e-01 4.8517802769557922e-01  0.0000000000000000e+00 7.5503238775270520e-01 4.4446736477036031e-01  0.0000000000000000e+00 2.0887850275312966e-02 5.3594580783185486e-01  0.0000000000000000e+00 2.7594129375158590e-02 6.5094001218664355e-01  0.0000000000000000e+00 1.7977072051234087e-02 4.5287406553604254e-01  0.0000000000000000e+00 3.8534311634901418e-02 7.5964090803844675e-01  0.0000000000000000e+00 6.6048431216671588e-02 8.8970088450784068e-01  0.0000000000000000e+00 2.2986696933727825e-02 5.8005385554230515e-01  0.0000000000000000e+00 3.1628619602567248e-01 9.7679102271647178e-01  0.0000000000000000e+00 3.9798735102570676e-01 9.1276438530790338e-01  0.0000000000000000e+00 3.7356280093067407e-01 9.3399500872288810e-01  0.0000000000000000e+00 4.5068450240430413e-01 8.6079833857254784e-01  0.0000000000000000e+00 5.1463690834007969e-01 7.8858874838818560e-01  0.0000000000000000e+00 5.3928545611985101e-01 7.5836002766250221e-01  0.0000000000000000e+00 2.4710454497923542e-01 1.0113299212372744e+00  0.0000000000000000e+00 7.2221744356912676e-01 4.9749746758400565e-01  0.0000000000000000e+00 7.4242524550113853e-01 4.6505919218859215e-01  0.0000000000000000e+00 8.1697225278053154e-01 3.3942425032412032e-01  0.0000000000000000e+00 1.8274908380829036e-01 1.0177995675209415e+00  0.0000000000