<?xml version="1.0"?>
<VTKFile type="UnstructuredGrid"  version="0.1"  >
<UnstructuredGrid>
<Piece  NumberOfPoints="645" NumberOfCells="1208">
<Points>
<DataArray  type="Float64"  NumberOfComponents="3"  format="ascii">500 250 0  0 250 0  250 500 0  250 0 0  269.6147739849193 499.2293334291141 0  289.1086163645346 496.9220851322369 0  308.3613411380662 493.0924800576239 0  327.2542488153708 487.7641290017751 0  345.6708583410312 480.9698830243682 0  363.4976252268579 472.7516308983252 0  380.6246415053586 463.1600408885224 0  396.9463134355418 452.2542483304208 0  412.3620124901979 440.1014910518401 0  426.7766957038264 426.7766948894474 0  440.1014917275007 412.3620116991009 0  452.2542488669409 396.9463126970852 0  463.1600413033558 380.6246408284121 0  472.751631216677 363.4976246020575 0  480.9698832532689 345.6708577884161 0  487.7641291438106 327.2542483782306 0  493.0924801408104 308.3613407915692 0  496.9220851690424 289.1086161321545 0  499.2293334387019 269.6147738630947 0  499.229333430357 230.3852260308728 0  496.9220851356368 210.8913836569316 0  493.0924800663345 191.6386588982162 0  487.7641290184218 172.7457512358624 0  480.9698830399936 154.3291416966919 0  472.7516309070343 136.5023747902346 0  463.1600408987175 119.3753585112783 0  452.2542483410546 103.0536865790945 0  440.1014910714183 87.63798753272525 0  426.7766948943133 73.22330430103958 0  412.3620117009348 59.89850827406559 0  396.9463126913573 47.74575112889752 0  380.6246408261736 36.83995869527249 0  363.4976245953484 27.24836877990464 0  345.6708577827026 19.03011674436451 0  327.2542483716913 12.23587085406467 0  308.361340780398 6.907519856507577 0  289.1086161262194 3.077914830017676 0  269.6147738583604 0.7706665609254912 0  230.3852260302092 0.7706665696952655 0  210.8913836535466 3.077914864899299 0  191.6386589008631 6.907519933030017 0  172.7457512318028 12.23587098289721 0  154.3291416990867 19.03011695901438 0  136.5023748091553 27.24836908332517 0  119.3753585100802 36.83995910201668 0  103.0536865836863 47.74575165560921 0  87.6379875279894 59.89850893262656 0  73.22330429312285 73.2233051136034 0  59.89850825318987 87.6379883235075 0  47.74575112052588 103.0536873201654 0  36.83995867902311 119.375359200343 0  27.24836876726107 136.502375429466 0  19.03011674184958 154.3291422233689 0  12.23587084468659 172.7457516571714 0  6.90751985664113 191.6386592190457 0  3.07791483051173 210.8913838706611 0  0.7706665612319625 230.3852261377458 0  0.770666570878916 269.6147739848303 0  3.077914868063033 289.1086163664283 0  6.907519941211973 308.3613411332171 0  12.23587099861078 327.2542488165586 0  19.03011697319531 345.6708583351491 0  27.24836908997781 363.4976252039013 0  36.83995910945072 380.624641502051 0  47.74575166272689 396.9463134261104 0  59.89850895284744 412.3620124956862 0  73.223305118437 426.7766957117107 0  87.63798832904175 440.1014917515369 0  103.0536873198473 452.2542488792431 0  119.3753591950333 463.1600413177231 0  136.502375416904 472.7516312263383 0  154.3291422204512 480.9698832569418 0  172.7457516527922 487.7641291538905 0  191.6386592093489 493.0924801410308 0  210.891383865478 496.9220851686673 0  230.38522613373 499.229333438452 0  408.0297414380137 79.04438812052823 0  470.6929872351991 328.8394125533284 0  327.5791944935511 30.66901791634585 0  186.8066927430735 474.0665667617239 0  241.1725543363619 17.80467707257488 0  481.8957906849985 237.8895419164845 0  241.9028711997863 481.7677876757489 0  22.04240264610397 260.0195362144032 0  66.93524317993541 393.9967576354165 0  407.5748062742585 421.804202868455 0  91.14498776833713 78.15950434153694 0  443.5721620986452 120.6592159456753 0  47.90357490700103 137.2584608638679 0  121.9854148726425 53.89110248018969 0  346.0986346915193 460.9657062005573 0  37.15978683308909 348.686261000426 0  443.2617512614241 379.6653657108164 0  469.6395010170255 166.6128966790255 0  169.4214360799271 31.58224567687904 0  120.0926710183088 443.0188983543295 0  25.93343325113663 186.8066927541892 0  294.4711068775667 479.0497777351075 0  25.93343346326644 313.1933076022177 0  379.5895462631086 444.9259942605202 0  477.3836837079734 202.381284598844 0  91.97025859159305 420.9556118868529 0  201.8099842058005 21.62718472283686 0  378.9340731306958 56.62233582097542 0  452.9866090845981 363.3843712213892 0  433.7891058935094 362.712636160478 0  423.9473865733744 379.4564211535431 0  414.2436151024774 362.5677032958672 0  424.001708291139 345.6669244533275 0  404.4610922180836 345.5134771956895 0  414.341417486195 328.5773255591307 0  394.7677429029752 328.480795053565 0  404.6609853910698 311.5262601202149 0  385.031291303632 311.4357195826571 0  375.101270673993 328.3607598117625 0  365.3740866097247 311.3257829175604 0  355.5083459394236 328.2997490723603 0  345.7718933714782 311.2546684470915 0  335.8786468089485 328.2092240351425 0  326.1421942370671 311.1641433897183 0  336.003344415795 294.1838138923774 0  316.3860344407723 294.1066032295112 0  306.5124951000444 311.0736183338123 0  296.7501789069282 294.0121813369556 0  306.6515351153541 277.0655652779993 0  287.0395899630898 276.98345703061 0  296.9328365330605 260.0289014374702 0  277.2982248613483 259.9358158720167 0  267.3990712864435 276.8845676964974 0  257.6713884944854 259.8456251093223 0  267.5666848269919 242.8932957192846 0  247.9365419809313 242.8056592582466 0  238.0437391039621 259.7573262582974 0  257.8302322568193 225.8482150584726 0  238.2005331082895 225.757689997251 0  248.0937796848919 208.8031343943687 0  267.7234788341136 208.8936594571897 0  228.4640805329348 208.712609333587 0  257.9870262635756 191.8485787959149 0  394.9245487736064 294.4811717944075 0  277.6167254091284 191.9391038586934 0  267.8802728403858 174.8940232011079 0  287.5005584344734 175.0117093161379 0  277.7685743892544 157.9663496219783 0  258.1421294336732 157.8702099927723 0  268.0370668499073 140.8943869520292 0  248.4073677066822 140.803861887803 0  297.4032185518097 158.029992671988 0  307.1396711152761 175.0750733211352 0  317.0329176840529 158.1205177336628 0  326.7693702482894 175.1655983760161 0  336.6626168121476 158.2110427905018 0  346.3990693731281 175.2561234311168 0  326.9054332650823 141.220514475552 0  258.300614283603 123.8493062912708 0  238.6709151364965 123.7587812267517 0  345.602770870788 345.2345146507195 0  228.7776685563935 140.7133368276114 0  219.0412159824577 123.6682561607107 0  209.1548086869 140.6568288028854 0  199.4115168211257 123.5777310947873 0  189.5182702336654 140.5322867083881 0  414.5061001206328 294.5791962676446 0  404.8178099709576 277.5266248278496 0  179.7818176563396 123.4872060318257 0  169.8885710669681 140.4417616462852 0  356.2923159345929 158.3015678516131 0  366.0287684987967 175.3466484913704 0  356.1355219340599 192.3012040743702 0  375.7652210728186 192.3917291327877 0  209.3047634085723 106.6231754828329 0  365.8719745031602 209.3462847214261 0  385.4473336989289 209.4589172776483 0  325.9854002589402 345.1637796339881 0  335.7218528424219 362.2088602706556 0  316.0921537106989 362.1183352318304 0  325.8286062932657 379.163415866528 0  306.198907162322 379.0728908286862 0  296.4624545814172 362.0278101960448 0  286.5692080329665 378.982365791018 0  276.8327554515532 361.9372851563691 0  266.939508902649 378.8918407521974 0  257.2030563201347 361.8467601163857 0  247.3098097697766 378.8013157143188 0  237.5733571858447 361.7562350760078 0  227.6801106339195 378.7107906764817 0  217.943658048477 361.6657100354885 0  208.0504114944145 378.6202656389371 0  198.313958909151 361.5751849900388 0  257.046262353733 395.8463963506437 0  188.4207123491114 378.5297405967377 0  178.6942702061005 361.4572585380363 0  188.5775063311286 344.5301043308571 0  168.9825719925815 344.3679587423489 0  178.862757141982 327.4597476508416 0  159.2319047656242 327.3721603214715 0  169.1046011625246 310.4399430048529 0  149.4749020045267 310.3494179549329 0  159.3681485763936 293.3948623397931 0  139.7621343179957 293.2923655078865 0  149.6316959897331 276.3497816754953 0  130.001996832586 276.2592566257254 0  139.8952434039481 259.3047010132285 0  120.2655442487169 259.2141759632096 0  130.1587908193085 242.2596203521963 0  110.5290916658602 242.1690953021686 0  120.4223382355493 225.2145396926986 0  139.5816554329651 327.3039735703393 0  140.0520373886098 225.3050647418833 0  100.6358450969261 259.1236509112424 0  217.7868640819771 395.665346280658 0  168.7910131993309 378.4392155450739 0  178.5274657798013 395.4842962032838 0  90.89939251396862 242.0785702520503 0  120.1087502632246 293.2138122376823 0  198.4827020443107 327.560288315778 0  130.3155848042933 208.2599840821261 0  110.6858856511 208.169459032866 0  120.5791322200218 191.2149034219518 0  179.6250236464644 157.4868423201703 0  248.5641617155314 106.8042256262046 0  268.1938608640521 106.8947506897054 0  218.5708339532014 225.6671649402842 0  296.3097884844733 395.9656221920631 0  160.1521184905691 123.396680968142 0  170.0453650783119 106.4421253476802 0  385.658427623638 175.451920499978 0  81.00614594559451 259.0331258609116 0  101.0554053508192 191.1247040573367 0  110.8426796353596 174.1698227613512 0  258.4574082944565 89.84967002797657 0  278.0871074405096 89.94019509160398 0  345.4583054269535 379.2539409100921 0  335.5650588729622 396.2084965020994 0  71.26969336281471 241.9880452024695 0  316.8761236845766 192.1201539629169 0  316.5489845965977 260.1172740927201 0  247.4666037372683 344.8016794754746 0  169.261395148653 276.4403067246208 0  424.4475090085939 277.6171671056567 0  477.5061263880716 295.9860753924438 0  297.7010004405789 21.78753761157149 0  152.5329738481066 461.4223243306178 0  158.8977666313233 395.3937711508539 0  18.80645331331318 222.6364406178562 0  91.05618649809102 208.0789339835232 0  67.55529962754241 105.2642692875928 0  268.3506548722531 72.89511443289081 0  248.7209557265558 72.80458936723331 0  414.7110714038412 260.5720779140291 0  375.5311866215619 226.3973061791794 0  385.1881
[...]
<PointData  Vectors="f_12"> 
<DataArray  type="Float64"  Name="f_12"  NumberOfComponents="3" format="ascii">0.0000000000000000e+00 4.0168475759630667e-01 9.0927607154655021e-01  0.0000000000000000e+00 6.6736815869825272e-01 5.8195949298905669e-01  0.0000000000000000e+00 1.5335577922872566e-02 2.4763076410941764e-01  0.0000000000000000e+00 8.9940835104512629e-01 1.8809986965087966e-01  0.0000000000000000e+00 1.5337414987291281e-02 2.4362158371912918e-01  0.0000000000000000e+00 1.5348169388869836e-02 2.4395907479681470e-01  0.0000000000000000e+00 1.5313713020874085e-02 2.5162037822923466e-01  0.0000000000000000e+00 1.5282593618917687e-02 2.6672650507855372e-01  0.0000000000000000e+00 1.5323921559006699e-02 2.8723962707242040e-01  0.0000000000000000e+00 1.5484620227312250e-02 3.1310188774600850e-01  0.0000000000000000e+00 1.5841846450083900e-02 3.4609106783190630e-01  0.0000000000000000e+00 1.6570476551659004e-02 3.9190431215537763e-01  0.0000000000000000e+00 1.7849696417058636e-02 4.4762354540471783e-01  0.0000000000000000e+00 2.0005604722730941e-02 5.1303310378952049e-01  0.0000000000000000e+00 2.3835611370470130e-02 5.9346223648018737e-01  0.0000000000000000e+00 3.0888225026955925e-02 6.8922086992330978e-01  0.0000000000000000e+00 4.3336155974347368e-02 7.8829571753510763e-01  0.0000000000000000e+00 6.4970521916778365e-02 8.8317026689228972e-01  0.0000000000000000e+00 9.7967923502471951e-02 9.5735992883654975e-01  0.0000000000000000e+00 1.4614409215538082e-01 1.0047275535555613e+00  0.0000000000000000e+00 2.0336411631423695e-01 1.0182336366477036e+00  0.0000000000000000e+00 2.7079474561773859e-01 1.0007080336359828e+00  0.0000000000000000e+00 3.3564224495218192e-01 9.6348937607491236e-01  0.0000000000000000e+00 4.7060787783297414e-01 8.3913106992585806e-01  0.0000000000000000e+00 5.3006212446837553e-01 7.6973116877198466e-01  0.0000000000000000e+00 5.8589300700220381e-01 6.9770490640678084e-01  0.0000000000000000e+00 6.3516662835189486e-01 6.2922158096816094e-01  0.0000000000000000e+00 6.7794119264440700e-01 5.6612692562509215e-01  0.0000000000000000e+00 7.1644815698094555e-01 5.0662399986309947e-01  0.0000000000000000e+00 7.4828566555182507e-01 4.5551736975204704e-01  0.0000000000000000e+00 7.7664777432066867e-01 4.0856577386997850e-01  0.0000000000000000e+00 8.0118668076708910e-01 3.6684365516319578e-01  0.0000000000000000e+00 8.2057604713386034e-01 3.3311407700890988e-01  0.0000000000000000e+00 8.3779171329890467e-01 3.0263147575775290e-01  0.0000000000000000e+00 8.5201613877950555e-01 2.7698389751084407e-01  0.0000000000000000e+00 8.6366241733086391e-01 2.5569318119614731e-01  0.0000000000000000e+00 8.7383831559877723e-01 2.3682416908980544e-01  0.0000000000000000e+00 8.8166604035878016e-01 2.2213521232937611e-01  0.0000000000000000e+00 8.8725990750960104e-01 2.1151347586570868e-01  0.0000000000000000e+00 8.9195839796734622e-01 2.0251517030257671e-01  0.0000000000000000e+00 8.9626435857470010e-01 1.9421936160002368e-01  0.0000000000000000e+00 8.9929185351914065e-01 1.8834711318435221e-01  0.0000000000000000e+00 9.0030654638435370e-01 1.8635797155482570e-01  0.0000000000000000e+00 8.9950300022580365e-01 1.8792396141317735e-01  0.0000000000000000e+00 8.9755095471910917e-01 1.9171323065446130e-01  0.0000000000000000e+00 8.9527961401022449e-01 1.9612079404688290e-01  0.0000000000000000e+00 8.9188966787723667e-01 2.0265595486309912e-01  0.0000000000000000e+00 8.8709208687434360e-01 2.1182489586456202e-01  0.0000000000000000e+00 8.8212209909126171e-01 2.2126488064344690e-01  0.0000000000000000e+00 8.7628014668845178e-01 2.3226341266757117e-01  0.0000000000000000e+00 8.6868705141824298e-01 2.4641034198684267e-01  0.0000000000000000e+00 8.5978224716084306e-01 2.6282103190705774e-01  0.0000000000000000e+00 8.5033213633357196e-01 2.8004676497507403e-01  0.0000000000000000e+00 8.3968910004294395e-01 2.9923308376981228e-01  0.0000000000000000e+00 8.2697818418143465e-01 3.2184258060580151e-01  0.0000000000000000e+00 8.1253605363686099e-01 3.4720374607600690e-01  0.0000000000000000e+00 7.9573335710570647e-01 3.7618916529174362e-01  0.0000000000000000e+00 7.7678908478140574e-01 4.0831988719277862e-01  0.0000000000000000e+00 7.5513362734896805e-01 4.4427303388770878e-01  0.0000000000000000e+00 7.3140586000478691e-01 4.8280212198270950e-01  0.0000000000000000e+00 7.0159594463198827e-01 5.2984772223055332e-01  0.0000000000000000e+00 6.3306300603621357e-01 6.3220823749158594e-01  0.0000000000000000e+00 5.8656045516900868e-01 6.9679299940375927e-01  0.0000000000000000e+00 5.3657526489022955e-01 7.6156844088980791e-01  0.0000000000000000e+00 4.7832293798670678e-01 8.3062754589574794e-01  0.0000000000000000e+00 4.1369762889699913e-01 8.9763002978671746e-01  0.0000000000000000e+00 3.4337851046869572e-01 9.5767482379482827e-01  0.0000000000000000e+00 2.7008143960804692e-01 1.0016666132548648e+00  0.0000000000000000e+00 1.9827980049381830e-01 1.0187300861272555e+00  0.0000000000000000e+00 1.3356530316751769e-01 9.9721096096370143e-01  0.0000000000000000e+00 8.2966475447170437e-02 9.3202514191913943e-01  0.0000000000000000e+00 5.1019261007098145e-02 8.3062321806316841e-01  0.0000000000000000e+00 3.2802795490734900e-02 7.0984621911679757e-01  0.0000000000000000e+00 2.3380220142024278e-02 5.8799598959041499e-01  0.0000000000000000e+00 1.9317280404113936e-02 4.9393177712666947e-01  0.0000000000000000e+00 1.6902845073672627e-02 4.0905727135790992e-01  0.0000000000000000e+00 1.5893857360040179e-02 3.5137158067327334e-01  0.0000000000000000e+00 1.5464806754775396e-02 3.0861133081804720e-01  0.0000000000000000e+00 1.5312317566647233e-02 2.7884208994338289e-01  0.0000000000000000e+00 1.5290838577933934e-02 2.5914085389684349e-01  0.0000000000000000e+00 8.2501990879869602e-01 3.2528593571497955e-01  0.0000000000000000e+00 1.3602458398153100e-01 9.9844712600777075e-01  0.0000000000000000e+00 8.8008500398937839e-01 2.2506668677062650e-01  0.0000000000000000e+00 1.5923651393145787e-02 3.5241438621338900e-01  0.0000000000000000e+00 8.9384810997889153e-01 1.9882713756940315e-01  0.0000000000000000e+00 4.5705359071628154e-01 8.5346014491126510e-01  0.0000000000000000e+00 1.5264800397232443e-02 2.7398161448655040e-01  0.0000000000000000e+00 6.3832244201830368e-01 6.2457134033158668e-01  0.0000000000000000e+00 1.7280554163704026e-01 1.0158222241939967e+00  0.0000000000000000e+00 1.9595303627731639e-02 5.0148436913359606e-01  0.0000000000000000e+00 8.5900951527193659e-01 2.6421368129974432e-01  0.0000000000000000e+00 7.6024309775730681e-01 4.3588905098826369e-01  0.0000000000000000e+00 8.1136788214632893e-01 3.4921691961661372e-01  0.0000000000000000e+00 8.7519643615131026e-01 2.3425728543689936e-01  0.0000000000000000e+00 1.5547331683189223e-02 3.1981606049468209e-01  0.0000000000000000e+00 3.7664419204004246e-01 9.3086194827946389e-01  0.0000000000000000e+00 3.9704171607608210e-02 7.6650101035352602e-01  0.0000000000000000e+00 6.6262313076700952e-01 5.8909382687354384e-01  0.0000000000000000e+00 8.8787967083210817e-01 2.1029685314669100e-01  0.0000000000000000e+00 2.9736863035357150e-02 6.7680431888812453e-01  0.0000000000000000e+00 7.5917924210781818e-01 4.3763381653980415e-01  0.0000000000000000e+00 1.5278525562528750e-02 2.6520612838004948e-01  0.0000000000000000e+00 5.0316676051017573e-01 8.0212529717027559e-01  0.0000000000000000e+00 1.6490549377939888e-02 3.8814113677075696e-01  0.0000000000000000e+00 5.6842985627672260e-01 7.2102304670244743e-01  0.0000000000000000e+00 7.0054099264309666e-02 8.9954142628456291e-01  0.0000000000000000e+00 8.9274054821317972e-01 2.0096067918005492e-01  0.0000000000000000e+00 8.5294844737106490e-01 2.7528435288962566e-01  0.0000000000000000e+00 5.9048770065879108e-02 8.6450439843062654e-01  0.0000000000000000e+00 6.6842028443994103e-02 8.9339753589695992e-01  0.0000000000000000e+00 4.2748589746722875e-02 7.9035307602103599e-01  0.0000000000000000e+00 8.2572189861155110e-02 9.3417195969965050e-01  0.0000000000000000e+00 1.2512019755635592e-01 9.9288221832676726e-01  0.0000000000000000e+00 1.4849969218166867e-01 1.0082597670022111e+00  0.0000000000000000e+00 2.0171013616459779e-01 1.0194609147568470e+00  0.0000000000000000e+00 2.2459162923119702e-01 1.0168049731226712e+00  0.0000000000000000e+00 2.8276331387013076e-01 9.9608700715376874e-01  0.0000000000000000e+00 3.0538719384770857e-01 9.8354043434061922e-01  0.0000000000000000e+00 2.4591366311364679e-01 1.0113427318820116e+00  0.0000000000000000e+00 3.2494949576266396e-01 9.7099564772810110e-01  0.0000000000000000e+00 2.6440537744444204e-01 1.0044984324325470e+00  0.0000000000000000e+00 3.4123960442638013e-01 9.5947184300753308e-01  0.0000000000000000e+00 2.8016323459392073e-01 9.9732788751186785e-01  0.0000000000000000e+00 3.5504410736375053e-01 9.4898499242820800e-01  0.0000000000000000e+00 4.1444294670139614e-01 8.9715107237173186e-01  0.0000000000000000e+00 4.2640882872878300e-01 8.8547851186342019e-01  0.0000000000000000e+00 3.6646356652388767e-01 9.3984401616636037e-01  0.0000000000000000e+00 4.3605669864421320e-01 8.7579067417754763e-01  0.0000000000000000e+00 4.8961140213352439e-01 8.1783968970460630e-01  0.0000000000000000e+00 4.9757410945698832e-01 8.0865402225366001e-01  0.0000000000000000e+00 5.4729442717864751e-01 7.4819249441682423e-01  0.0000000000000000e+00 5.5376744479672146e-01 7.3993680572218412e-01  0.0000000000000000e+00 5.0399536595390926e-01 8.0114562759914343e-01  0.0000000000000000e+00 5.5883385719196532e-01 7.3341487676149320e-01  0.0000000000000000e+00 6.0221754472711519e-01 6.7552993631310543e-01  0.0000000000000000e+00 6.0632297842420102e-01 6.6986738343834840e-01  0.0000000000000000e+00 5.6283547970313197e-01 7.2822768655422698e-01  0.0000000000000000e+00 6.4607732326575840e-01 6.1342389262185970e-01  0.0000000000000000e+00 6.4932237142704441e-01 6.0868825259151504e-01  0.0000000000000000e+00 6.8344177217827995e-01 5.5777708247865010e-01  0.0000000000000000e+00 6.8019227107517066e-01 5.6271259833296849e-01  0.0000000000000000e+00 6.8598628250466198e-01 5.5389973226536449e-01  0.0000000000000000e+00 7.1456013854811395e-01 5.0960057863146291e-01  0.0000000000000000e+00 3.6152074373805992e-01 9.4389053585527860e-01  0.0000000000000000e+00 7.1111281062346976e-01 5.1501965659897853e-01  0.0000000000000000e+00 7.4163177792015222e-01 4.6633676507534305e-01  0.0000000000000000e+00 7.3822368192670595e-01 4.7185188189096350e-01  0.0000000000000000e+00 7.6524266161173071e-01 4.2760270461094629e-01  0.0000000000000000e+00 7.6803204430697480e-01 4.2296529182290654e-01  0.0000000000000000e+00 7.8973076629110450e-01 3.8643856145101035e-01  0.0000000000000000e+00 7.9188171350950420e-01 3.8277307264933524e-01  0.0000000000000000e+00 7.6173770647783945e-01 4.3341108955592222e-01  0.0000000000000000e+00 7.3395594276551535e-01 4.7873082366434322e-01  0.0000000000000000e+00 7.5732741055234454e-01 4.4069073103244344e-01  0.0000000000000000e+00 7.2852329344453559e-01 4.8744290649708555e-01  0.0000000000000000e+00 7.5193383720575890e-01 4.4955020046275956e-01  0.0000000000000000e+00 7.2177581335771213e-01 4.9819343993404003e-01  0.0000000000000000e+00 7.7867951326861662e-01 4.0514348768059494e-01  0.0000000000000000e+00 8.1026679405565527e-01 3.5111733085458380e-01  0.0000000000000000e+00 8.1194586854828577e-01 3.4819715827746844e-01  0.0000000000000000e+00 2.0265726546986254e-01 1.0193453441852189e+00  0.0000000000000000e+00 7.9349762646411448e-01 3.8001405045728509e-01  0.0000000000000000e+00 8.1320071144135953e-01 3.4601170518118113e-01  0.0000000000000000e+00 7.9468004946494986e-01 3.7799208066021628e-01  0.0000000000000000e+00 8.1413951794027495e-01 3.4437470526162389e-01  0.0000000000000000e+00 7.9567833105043206e-01 3.7628305121343325e-01  0.0000000000000000e+00 3.3836585434145322e-01 9.6162374607991152e-01  0.0000000000000000e+00 4.1511994708561895e-01 8.9652344617538804e-01  0.0000000000000000e+00 8.1490458693691126e-01 3.4303937079208086e-01  0.0000000000000000e+00 7.9652694627845344e-01 3.7482896110761382e-01  0.0000000000000000e+00 7.4545784112977231e-01 4.6012434752423970e-01  0.0000000000000000e+00 7.1352868077515197e-01 5.1122705311051475e-01  0.0000000000000000e+00 6.8606302606708858e-01 5.5378612275306793e-01  0.0000000000000000e+00 6.7635511234394086e-01 5.6852221558974403e-01  0.0000000000000000e+00 8.3128086879145413e-01 3.1421187826766084e-01  0.0000000000000000e+00 6.4603773971193801e-01 6.1348601846186945e-01  0.0000000000000000e+00 6.3396642136105119e-01 6.3093477283037358e-01  0.0000000000000000e+00 2.1624053523813916e-01 1.0181360895856713e+00  0.0000000000000000e+00 1.4421450355785481e-01 1.0057854395354378e+00  0.0000000000000000e+00 1.5565966781782453e-01 1.0113395386568114e+00  0.0000000000000000e+00 9.2779287030295449e-02 9.5235363310805776e-01  0.0000000000000000e+00 1.0102644941324970e-01 9.6505236281685025e-01  0.0000000000000000e+00 1.6517420736439214e-01 1.0147308454186343e+00  0.0000000000000000e+00 1.0821160641932742e-01 9.7451052593771759e-01  0.0000000000000000e+00 1.7310548717674806e-01 1.0167944424629634e+00  0.0000000000000000e+00 1.1442909365269505e-01 9.8168163287151766e-01  0.0000000000000000e+00 1.7979600150612449e-01 1.0180318951463403e+00  0.0000000000000000e+00 1.1994725823128391e-01 9.8734964073732168e-01  0.0000000000000000e+00 1.8569337763562133e-01 1.0187648741880631e+00  0.0000000000000000e+00 1.2515138456996761e-01 9.9210795651216643e-01  0.0000000000000000e+00 1.9127823086857684e-01 1.0191738324749540e+00  0.0000000000000000e+00 1.3053748114527772e-01 9.9646715517087692e-01  0.0000000000000000e+00 1.9715206724027454e-01 1.0193150881871074e+00  0.0000000000000000e+00 6.8777580871493701e-02 8.9970694844522792e-01  0.0000000000000000e+00 1.3658489669104790e-01 1.0007965794011644e+00  0.0000000000000000e+00 2.0397140666811728e-01 1.0191431027901598e+00  0.0000000000000000e+00 2.6974480243429205e-01 1.0021212933948285e+00  0.0000000000000000e+00 2.7720360705195318e-01 9.9866314007896539e-01  0.0000000000000000e+00 3.4125174089161242e-01 9.5939616601918798e-01  0.0000000000000000e+00 3.4811348465071024e-01 9.5424347559720557e-01  0.0000000000000000e+00 4.0978793477391640e-01 9.0153938912665854e-01  0.0000000000000000e+00 4.1647290180158131e-01 8.9514642565461888e-01  0.0000000000000000e+00 4.7201738788525538e-01 8.3760091504669976e-01  0.0000000000000000e+00 4.7821836845821719e-01 8.3069794414294684e-01  0.0000000000000000e+00 5.2914245246265190e-01 7.7085863864213466e-01  0.0000000000000000e+00 5.3505947418101196e-01 7.6353427979578448e-01  0.0000000000000000e+00 5.7959171784705543e-01 7.0615338128144689e-01  0.0000000000000000e+00 5.8491584171830169e-01 6.9902677404415836e-01  0.0000000000000000e+00 6.2480497733877427e-01 6.4397876031977197e-01  0.0000000000000000e+00 6.2996614135368756e-01 6.3663605259866807e-01  0.0000000000000000e+00 6.6481554203293258e-01 5.8581148289206919e-01  0.0000000000000000e+00 3.5659680945652716e-01 9.4767724751463556e-01  0.0000000000000000e+00 6.6125521971375090e-01 5.9110641387163343e-01  0.0000000000000000e+00 5.9179393128697566e-01 6.8974292317207497e-01  0.0000000000000000e+00 7.6461207399900935e-02 9.1944848145054869e-01  0.0000000000000000e+00 1.4384013775010765e-01 1.0052855076584613e+00  0.0000000000000000e+00 8.6348685413340676e-02 9.4027136568081904e-01  0.0000000000000000e+00 6.3658585539332535e-01 6.2714763279714625e-01  0.0000000000000000e+00 4.8605529682969578e-01 8.2185451179648839e-01  0.0000000000000000e+00 3.3548301991726759e-01 9.6359995428652012e-01  0.0000000000000000e+00 6.9633901762553008e-01 5.3800584804831897e-01  0.0000000000000000e+00 6.9975879740871816e-01 5.3271552911821629e-01  0.0000000000000000e+00 7.2829423839455254e-01 4.8780301717266661e-01  0.0000000000000000e+00 7.7420560351782752e-01 4.1265449512274244e-01  0.0000000000000000e+00 8.2892422202146610e-01 3.1839099000496041e-01  0.0000000000000000e+00 8.2713224918985395e-01 3.2156192699892033e-01  0.0000000000000000e+00 6.5190238842759518e-01 6.0490900450617890e-01  0.0000000000000000e+00 6.0599441154389734e-02 8.7382021795046727e-01  0.0000000000000000e+00 8.1559465181203139e-01 3.4183405636787378e-01  0.0000000000000000e+00 8.3267286726568401e-01 3.1173813568783665e-01  0.0000000000000000e+00 7.0367646782316240e-01 5.2664355532503215e-01  0.0000000000000000e+00 6.0056336579955005e-01 6.7777661967644032e-01  0.0000000000000000e+00 7.3140684341984663e-01 4.8281686751293640e-01  0.0000000000000000e+00 7.5532144417884917e-01 4.4398691963665443e-01  0.0000000000000000e+00 8.4380329658834730e-01 2.9182422990574852e-01  0.0000000000000000e+00 8.4192908418543633e-01 2.9519399721075651e-01  0.0000000000000000e+00 8.3636848454851101e-02 9.3545953946055127e-01  0.0000000000000000e+00 4.9958014021792049e-02 8.3101750312812028e-01  0.0000000000000000e+00 6.4483620967218092e-01 6.1521166410638473e-01  0.0000000000000000e+00 7.0112003086916230e-01 5.3061315698121847e-01  0.0000000000000000e+00 5.3911485050992680e-01 7.5850131352944639e-01  0.0000000000000000e+00 2.5198865288199507e-01 1.0092358252770468e+00  0.0000000000000000e+00 5.2446122334487588e-01 7.7660139007012252e-01  0.0000000000000000e+00 3.9137365131147261e-01 9.1857598526927997e-01  0.0000000000000000e+00 2.4303205229250824e-01 1.0120899961858270e+00  0.0000000000000000e+00 8.8815839006484054e-01 2.0975549311672181e-01  0.0000000000000000e+00 1.8707402457242065e-02 4.7625030083255615e-01  0.0000000000000000e+00 9.3503859703184672e-02 9.5269560534927811e-01  0.0000000000000000e+00 7.0973650757131879e-01 5.1722022930367806e-01  0.0000000000000000e+00 7.0427746731022178e-01 5.2569570278685429e-01  0.0000000000000000e+00 8.3944389501986438e-01 2.9965324929297588e-01  0.0000000000000000e+00 8.5672320845053274e-01 2.6839129251251836e-01  0.0000000000000000e+00 8.5781257379554665e-01 2.6639717872251523e-01  0.0000000000000000e+00 4.6365310343483063e-01 8.4681264584343408e-01  0.0000000000000000e+00 5.9875754853434993e-01 6.8028588094704745e-01  0.0000000000000000e+00 4.3575870364292857e-01 8.7611427702183031e-01  0.0000000000000000e+00 8.2477982893815260e-01 3.2571519298090990e-01  0.0000000000000000e+00 8.3967009194566522e-01 2.9924838094386619e-01  0.0000000000000000e+00 1.5315494985001629e-01 1.0099638855183930e+00  0.0000000000000000e+00 6.9373340867557509e-01 5.4202348431626324e-01  0.0000000000000000e+00 6.8803389598236908e-01 5.5077089662901169e-01  0.0000000000000000e+00 6.5847991647593684e-01 5.9521862699487083e-01  0.0000000000000000e+00 8.3326216651988017e-01 3.1068867793124239e-01  0.0000000000000000e+00 8.4789711132818879e-01 2.8443584692642371e-01  0.0000000000000000e+00 8.1639642861932016e-01 3.4043251761890242e-01  0.0000000000000000e+00 7.5829351689413738e-01 4.3909552157088938e-01  0.0000000000000000e+00 7.8051942312313394e-01 4.0203955290127330e-01  0.0000000000000000e+00 4.4281880292260024e-02 8.0162948277752433e-01  0.0000000000000000e+00 5.1492004754996490e-02 8.3830163823388049e-01  0.0000000000000000e+00 2.7856321254247200e-02 6.6157823714260200e-01  0.0000000000000000e+00 1.0295720027425254e-01 9.6665396428755612e-01  0.0000000000000000e+00 1.6513433834167901e-01 1.0143231461092159e+00  0.0000000000000000e+00 5.1995984968620290e-02 8.3970364103345174e-01  0.0000000000000000e+00 4.4097805317180117e-01 8.7079787996370250e-01  0.0000000000000000e+00 5.0795310468954702e-01 7.9650425114965795e-01  0.0000000000000000e+00 4.8520073215878973e-01 8.2290730244816157e-01  0.0000000000000000e+00 5.4899590517934205e-01 7.4604840698119990e-01  0.0000000000000000e+00 5.9045757618008132e-01 6.9157608384362179e-01  0.0000000000000000e+00 6.1092692136355986e-01 6.6348437262015370e-01  0.0000000000000000e+00 3.7576168305610896e-01 9.3210032661363407e-01  0.0000000000000000e+00 7.5321221143425843e-01 4.4745054900514453e-01  0.0000000000000000e+00 7.7183921869157635e-01 4.1661420956042172e-01  0.0000000000000000e+00 8.3386798040842536e-01 3.0960868000447378e-01  0.0000000000000000e+00 3.1240372488371621e-01 9.7923350533523990e-01  0.0000000000