<?xml version="1.0"?>
<VTKFile type="UnstructuredGrid"  version="0.1"  >
<UnstructuredGrid>
<Piece  NumberOfPoints="645" NumberOfCells="1208">
<Points>
<DataArray  type="Float64"  NumberOfComponents="3"  format="ascii">500 250 0  0 250 0  250 500 0  250 0 0  269.6147739849193 499.2293334291141 0  289.1086163645346 496.9220851322369 0  308.3613411380662 493.0924800576239 0  327.2542488153708 487.7641290017751 0  345.6708583410312 480.9698830243682 0  363.4976252268579 472.7516308983252 0  380.6246415053586 463.1600408885224 0  396.9463134355418 452.2542483304208 0  412.3620124901979 440.1014910518401 0  426.7766957038264 426.7766948894474 0  440.1014917275007 412.3620116991009 0  452.2542488669409 396.9463126970852 0  463.1600413033558 380.6246408284121 0  472.751631216677 363.4976246020575 0  480.9698832532689 345.6708577884161 0  487.7641291438106 327.2542483782306 0  493.0924801408104 308.3613407915692 0  496.9220851690424 289.1086161321545 0  499.2293334387019 269.6147738630947 0  499.229333430357 230.3852260308728 0  496.9220851356368 210.8913836569316 0  493.0924800663345 191.6386588982162 0  487.7641290184218 172.7457512358624 0  480.9698830399936 154.3291416966919 0  472.7516309070343 136.5023747902346 0  463.1600408987175 119.3753585112783 0  452.2542483410546 103.0536865790945 0  440.1014910714183 87.63798753272525 0  426.7766948943133 73.22330430103958 0  412.3620117009348 59.89850827406559 0  396.9463126913573 47.74575112889752 0  380.6246408261736 36.83995869527249 0  363.4976245953484 27.24836877990464 0  345.6708577827026 19.03011674436451 0  327.2542483716913 12.23587085406467 0  308.361340780398 6.907519856507577 0  289.1086161262194 3.077914830017676 0  269.6147738583604 0.7706665609254912 0  230.3852260302092 0.7706665696952655 0  210.8913836535466 3.077914864899299 0  191.6386589008631 6.907519933030017 0  172.7457512318028 12.23587098289721 0  154.3291416990867 19.03011695901438 0  136.5023748091553 27.24836908332517 0  119.3753585100802 36.83995910201668 0  103.0536865836863 47.74575165560921 0  87.6379875279894 59.89850893262656 0  73.22330429312285 73.2233051136034 0  59.89850825318987 87.6379883235075 0  47.74575112052588 103.0536873201654 0  36.83995867902311 119.375359200343 0  27.24836876726107 136.502375429466 0  19.03011674184958 154.3291422233689 0  12.23587084468659 172.7457516571714 0  6.90751985664113 191.6386592190457 0  3.07791483051173 210.8913838706611 0  0.7706665612319625 230.3852261377458 0  0.770666570878916 269.6147739848303 0  3.077914868063033 289.1086163664283 0  6.907519941211973 308.3613411332171 0  12.23587099861078 327.2542488165586 0  19.03011697319531 345.6708583351491 0  27.24836908997781 363.4976252039013 0  36.83995910945072 380.624641502051 0  47.74575166272689 396.9463134261104 0  59.89850895284744 412.3620124956862 0  73.223305118437 426.7766957117107 0  87.63798832904175 440.1014917515369 0  103.0536873198473 452.2542488792431 0  119.3753591950333 463.1600413177231 0  136.502375416904 472.7516312263383 0  154.3291422204512 480.9698832569418 0  172.7457516527922 487.7641291538905 0  191.6386592093489 493.0924801410308 0  210.891383865478 496.9220851686673 0  230.38522613373 499.229333438452 0  408.0297414380137 79.04438812052823 0  470.6929872351991 328.8394125533284 0  327.5791944935511 30.66901791634585 0  186.8066927430735 474.0665667617239 0  241.1725543363619 17.80467707257488 0  481.8957906849985 237.8895419164845 0  241.9028711997863 481.7677876757489 0  22.04240264610397 260.0195362144032 0  66.93524317993541 393.9967576354165 0  407.5748062742585 421.804202868455 0  91.14498776833713 78.15950434153694 0  443.5721620986452 120.6592159456753 0  47.90357490700103 137.2584608638679 0  121.9854148726425 53.89110248018969 0  346.0986346915193 460.9657062005573 0  37.15978683308909 348.686261000426 0  443.2617512614241 379.6653657108164 0  469.6395010170255 166.6128966790255 0  169.4214360799271 31.58224567687904 0  120.0926710183088 443.0188983543295 0  25.93343325113663 186.8066927541892 0  294.4711068775667 479.0497777351075 0  25.93343346326644 313.1933076022177 0  379.5895462631086 444.9259942605202 0  477.3836837079734 202.381284598844 0  91.97025859159305 420.9556118868529 0  201.8099842058005 21.62718472283686 0  378.9340731306958 56.62233582097542 0  452.9866090845981 363.3843712213892 0  433.7891058935094 362.712636160478 0  423.9473865733744 379.4564211535431 0  414.2436151024774 362.5677032958672 0  424.001708291139 345.6669244533275 0  404.4610922180836 345.5134771956895 0  414.341417486195 328.5773255591307 0  394.7677429029752 328.480795053565 0  404.6609853910698 311.5262601202149 0  385.031291303632 311.4357195826571 0  375.101270673993 328.3607598117625 0  365.3740866097247 311.3257829175604 0  355.5083459394236 328.2997490723603 0  345.7718933714782 311.2546684470915 0  335.8786468089485 328.2092240351425 0  326.1421942370671 311.1641433897183 0  336.003344415795 294.1838138923774 0  316.3860344407723 294.1066032295112 0  306.5124951000444 311.0736183338123 0  296.7501789069282 294.0121813369556 0  306.6515351153541 277.0655652779993 0  287.0395899630898 276.98345703061 0  296.9328365330605 260.0289014374702 0  277.2982248613483 259.9358158720167 0  267.3990712864435 276.8845676964974 0  257.6713884944854 259.8456251093223 0  267.5666848269919 242.8932957192846 0  247.9365419809313 242.8056592582466 0  238.0437391039621 259.7573262582974 0  257.8302322568193 225.8482150584726 0  238.2005331082895 225.757689997251 0  248.0937796848919 208.8031343943687 0  267.7234788341136 208.8936594571897 0  228.4640805329348 208.712609333587 0  257.9870262635756 191.8485787959149 0  394.9245487736064 294.4811717944075 0  277.6167254091284 191.9391038586934 0  267.8802728403858 174.8940232011079 0  287.5005584344734 175.0117093161379 0  277.7685743892544 157.9663496219783 0  258.1421294336732 157.8702099927723 0  268.0370668499073 140.8943869520292 0  248.4073677066822 140.803861887803 0  297.4032185518097 158.029992671988 0  307.1396711152761 175.0750733211352 0  317.0329176840529 158.1205177336628 0  326.7693702482894 175.1655983760161 0  336.6626168121476 158.2110427905018 0  346.3990693731281 175.2561234311168 0  326.9054332650823 141.220514475552 0  258.300614283603 123.8493062912708 0  238.6709151364965 123.7587812267517 0  345.602770870788 345.2345146507195 0  228.7776685563935 140.7133368276114 0  219.0412159824577 123.6682561607107 0  209.1548086869 140.6568288028854 0  199.4115168211257 123.5777310947873 0  189.5182702336654 140.5322867083881 0  414.5061001206328 294.5791962676446 0  404.8178099709576 277.5266248278496 0  179.7818176563396 123.4872060318257 0  169.8885710669681 140.4417616462852 0  356.2923159345929 158.3015678516131 0  366.0287684987967 175.3466484913704 0  356.1355219340599 192.3012040743702 0  375.7652210728186 192.3917291327877 0  209.3047634085723 106.6231754828329 0  365.8719745031602 209.3462847214261 0  385.4473336989289 209.4589172776483 0  325.9854002589402 345.1637796339881 0  335.7218528424219 362.2088602706556 0  316.0921537106989 362.1183352318304 0  325.8286062932657 379.163415866528 0  306.198907162322 379.0728908286862 0  296.4624545814172 362.0278101960448 0  286.5692080329665 378.982365791018 0  276.8327554515532 361.9372851563691 0  266.939508902649 378.8918407521974 0  257.2030563201347 361.8467601163857 0  247.3098097697766 378.8013157143188 0  237.5733571858447 361.7562350760078 0  227.6801106339195 378.7107906764817 0  217.943658048477 361.6657100354885 0  208.0504114944145 378.6202656389371 0  198.313958909151 361.5751849900388 0  257.046262353733 395.8463963506437 0  188.4207123491114 378.5297405967377 0  178.6942702061005 361.4572585380363 0  188.5775063311286 344.5301043308571 0  168.9825719925815 344.3679587423489 0  178.862757141982 327.4597476508416 0  159.2319047656242 327.3721603214715 0  169.1046011625246 310.4399430048529 0  149.4749020045267 310.3494179549329 0  159.3681485763936 293.3948623397931 0  139.7621343179957 293.2923655078865 0  149.6316959897331 276.3497816754953 0  130.001996832586 276.2592566257254 0  139.8952434039481 259.3047010132285 0  120.2655442487169 259.2141759632096 0  130.1587908193085 242.2596203521963 0  110.5290916658602 242.1690953021686 0  120.4223382355493 225.2145396926986 0  139.5816554329651 327.3039735703393 0  140.0520373886098 225.3050647418833 0  100.6358450969261 259.1236509112424 0  217.7868640819771 395.665346280658 0  168.7910131993309 378.4392155450739 0  178.5274657798013 395.4842962032838 0  90.89939251396862 242.0785702520503 0  120.1087502632246 293.2138122376823 0  198.4827020443107 327.560288315778 0  130.3155848042933 208.2599840821261 0  110.6858856511 208.169459032866 0  120.5791322200218 191.2149034219518 0  179.6250236464644 157.4868423201703 0  248.5641617155314 106.8042256262046 0  268.1938608640521 106.8947506897054 0  218.5708339532014 225.6671649402842 0  296.3097884844733 395.9656221920631 0  160.1521184905691 123.396680968142 0  170.0453650783119 106.4421253476802 0  385.658427623638 175.451920499978 0  81.00614594559451 259.0331258609116 0  101.0554053508192 191.1247040573367 0  110.8426796353596 174.1698227613512 0  258.4574082944565 89.84967002797657 0  278.0871074405096 89.94019509160398 0  345.4583054269535 379.2539409100921 0  335.5650588729622 396.2084965020994 0  71.26969336281471 241.9880452024695 0  316.8761236845766 192.1201539629169 0  316.5489845965977 260.1172740927201 0  247.4666037372683 344.8016794754746 0  169.261395148653 276.4403067246208 0  424.4475090085939 277.6171671056567 0  477.5061263880716 295.9860753924438 0  297.7010004405789 21.78753761157149 0  152.5329738481066 461.4223243306178 0  158.8977666313233 395.3937711508539 0  18.80645331331318 222.6364406178562 0  91.05618649809102 208.0789339835232 0  67.55529962754241 105.2642692875928 0  268.3506548722531 72.89511443289081 0  248.7209557265558 72.80458936723331 0  414.7110714038412 260.5720779140291 0  375.5311866215619 226.3973061791794 0  385.1881
[...]
<PointData  Vectors="f_12"> 
<DataArray  type="Float64"  Name="f_12"  NumberOfComponents="3" format="ascii">0.0000000000000000e+00 2.6354166666666667e-01 4.5918888888888887e-01  0.0000000000000000e+00 2.3854166666666665e-01 4.7418888888888888e-01  0.0000000000000000e+00 2.6216666666666666e-01 4.3668888888888890e-01  0.0000000000000000e+00 2.6466666666666666e-01 4.9668888888888890e-01  0.0000000000000000e+00 2.6327062338761309e-01 4.3619292565784762e-01  0.0000000000000000e+00 2.6422092049616513e-01 4.3588498018208444e-01  0.0000000000000000e+00 2.6501236231394365e-01 4.3576695104783197e-01  0.0000000000000000e+00 2.6564358267559185e-01 4.3583956594421475e-01  0.0000000000000000e+00 2.6611696684612063e-01 4.3610237717573375e-01  0.0000000000000000e+00 2.6643848225384975e-01 4.3655376442428412e-01  0.0000000000000000e+00 2.6661742289472135e-01 4.3719094473710540e-01  0.0000000000000000e+00 2.6666607437515022e-01 4.3800998968617211e-01  0.0000000000000000e+00 2.6659930848872621e-01 4.3900584958796207e-01  0.0000000000000000e+00 2.6643411794890604e-01 4.4017238463104036e-01  0.0000000000000000e+00 2.6618910334241114e-01 4.4150240273317176e-01  0.0000000000000000e+00 2.6588392551588430e-01 4.4298770389923042e-01  0.0000000000000000e+00 2.6553873744578843e-01 4.4461913075037873e-01  0.0000000000000000e+00 2.6517361008174456e-01 4.4638662500014165e-01  0.0000000000000000e+00 2.6480796679448759e-01 4.4827928945668083e-01  0.0000000000000000e+00 2.6446004078621055e-01 4.5028545520918689e-01  0.0000000000000000e+00 2.6414636922044393e-01 4.5239275358967623e-01  0.0000000000000000e+00 2.6388133688963800e-01 4.5458819239795906e-01  0.0000000000000000e+00 2.6367678094193697e-01 4.5685823602215647e-01  0.0000000000000000e+00 2.6348184251921791e-01 4.6156578176227347e-01  0.0000000000000000e+00 2.6349988056810519e-01 4.6397426029598798e-01  0.0000000000000000e+00 2.6359500638432448e-01 4.6639947541911286e-01  0.0000000000000000e+00 2.6376312014711134e-01 4.6882647487003276e-01  0.0000000000000000e+00 2.6399690843151818e-01 4.7124029539408602e-01  0.0000000000000000e+00 2.6428604385707993e-01 4.7362605498684968e-01  0.0000000000000000e+00 2.6461746756104482e-01 4.7596904464057399e-01  0.0000000000000000e+00 2.6497574737166957e-01 4.7825481904916589e-01  0.0000000000000000e+00 2.6534350262833839e-01 4.8046928565281927e-01  0.0000000000000000e+00 2.6570188491804120e-01 4.8259879152593471e-01  0.0000000000000000e+00 2.6603110256235646e-01 4.8463020754497294e-01  0.0000000000000000e+00 2.6631097557658923e-01 4.8655100937268042e-01  0.0000000000000000e+00 2.6652150699653065e-01 4.8834935462067097e-01  0.0000000000000000e+00 2.6664345607562601e-01 4.9001415589743985e-01  0.0000000000000000e+00 2.6665889871824061e-01 4.9153514914608404e-01  0.0000000000000000e+00 2.6655176082699211e-01 4.9290295693525038e-01  0.0000000000000000e+00 2.6630831085606999e-01 4.9410914628269603e-01  0.0000000000000000e+00 2.6591759885379662e-01 4.9514628062550020e-01  0.0000000000000000e+00 2.6537183055421310e-01 4.9600796568582700e-01  0.0000000000000000e+00 2.6380143932414230e-01 4.9718485211961916e-01  0.0000000000000000e+00 2.6277927971205833e-01 4.9749279759549458e-01  0.0000000000000000e+00 2.6160715300324944e-01 4.9761082672989937e-01  0.0000000000000000e+00 2.6029579908754974e-01 4.9753821183398711e-01  0.0000000000000000e+00 2.5885957984556301e-01 4.9727540060283454e-01  0.0000000000000000e+00 2.5731623604342063e-01 4.9682401335461518e-01  0.0000000000000000e+00 2.5568655915460636e-01 4.9618683304134448e-01  0.0000000000000000e+00 2.5399398551697694e-01 4.9536778809270515e-01  0.0000000000000000e+00 2.5226412215234378e-01 4.9437192819113396e-01  0.0000000000000000e+00 2.5052421532703650e-01 4.9320539314646278e-01  0.0000000000000000e+00 2.4880257428407340e-01 4.9187537504247225e-01  0.0000000000000000e+00 2.4712796375437840e-01 4.9039007387685318e-01  0.0000000000000000e+00 2.4552897972107163e-01 4.8875864702447697e-01  0.0000000000000000e+00 2.4403342320351196e-01 4.8699115277433508e-01  0.0000000000000000e+00 2.4266768704620517e-01 4.8509848831982910e-01  0.0000000000000000e+00 2.4145617035347544e-01 4.8309232256468770e-01  0.0000000000000000e+00 2.4042073461375549e-01 4.8098502418690420e-01  0.0000000000000000e+00 2.3958021453394820e-01 4.7878958537949423e-01  0.0000000000000000e+00 2.3894999533667535e-01 4.7651954175552236e-01  0.0000000000000000e+00 2.3836276143644061e-01 4.7181199601358292e-01  0.0000000000000000e+00 2.3841658589131584e-01 4.6940351747887560e-01  0.0000000000000000e+00 2.3870214496733178e-01 4.6697830235466647e-01  0.0000000000000000e+00 2.3921416475937513e-01 4.6455130290094349e-01  0.0000000000000000e+00 2.3994321154594861e-01 4.6213748237947511e-01  0.0000000000000000e+00 2.4087590451393392e-01 4.5975172279172138e-01  0.0000000000000000e+00 2.4199521705724611e-01 4.5740873313535924e-01  0.0000000000000000e+00 2.4328085940380109e-01 4.5512295872787378e-01  0.0000000000000000e+00 2.4470973339936333e-01 4.5290849212082107e-01  0.0000000000000000e+00 2.4625644847308661e-01 4.5077898624993046e-01  0.0000000000000000e+00 2.4789388647836347e-01 4.4874757022883316e-01  0.0000000000000000e+00 2.4959380181995680e-01 4.4682676840378427e-01  0.0000000000000000e+00 2.5132744250307126e-01 4.4502842315491109e-01  0.0000000000000000e+00 2.5306617730510311e-01 4.4336362187922118e-01  0.0000000000000000e+00 2.5478211410770879e-01 4.4184262863144230e-01  0.0000000000000000e+00 2.5644869470050530e-01 4.4047482084083828e-01  0.0000000000000000e+00 2.5804125197576400e-01 4.3926863149568468e-01  0.0000000000000000e+00 2.5953751638885780e-01 4.3823149715268445e-01  0.0000000000000000e+00 2.6091805983345412e-01 4.3736981209226278e-01  0.0000000000000000e+00 2.6616415747399785e-01 4.8246267007128507e-01  0.0000000000000000e+00 2.6512458095548780e-01 4.5060736976543347e-01  0.0000000000000000e+00 2.6653674202200411e-01 4.9068123090412086e-01  0.0000000000000000e+00 2.5779619770494216e-01 4.4169670009518980e-01  0.0000000000000000e+00 2.6421984456661396e-01 4.9481715101008900e-01  0.0000000000000000e+00 2.6432924904734667e-01 4.6118527013836075e-01  0.0000000000000000e+00 2.6178235982936554e-01 4.3911966823180543e-01  0.0000000000000000e+00 2.4160919392133431e-01 4.7232527246377731e-01  0.0000000000000000e+00 2.4587000461037323e-01 4.5490122067724081e-01  0.0000000000000000e+00 2.6661926924268076e-01 4.4134514035644651e-01  0.0000000000000000e+00 2.5244398620084402e-01 4.9207539873485434e-01  0.0000000000000000e+00 2.6533801321844497e-01 4.7640261811244849e-01  0.0000000000000000e+00 2.4671792527208558e-01 4.8628076633801470e-01  0.0000000000000000e+00 2.5577120966369038e-01 4.9406239414508685e-01  0.0000000000000000e+00 2.6616670794724384e-01 4.3849004510407641e-01  0.0000000000000000e+00 2.4248637928579225e-01 4.6123174396384509e-01  0.0000000000000000e+00 2.6605515451313644e-01 4.4533119246574820e-01  0.0000000000000000e+00 2.6454576426413373e-01 4.7010615625689506e-01  0.0000000000000000e+00 2.5991482517790743e-01 4.9531637632526559e-01  0.0000000000000000e+00 2.5162852752980719e-01 4.4742384095582011e-01  0.0000000000000000e+00 2.4317153310620965e-01 4.8099408276085215e-01  0.0000000000000000e+00 2.6452695353696287e-01 4.3786878235434895e-01  0.0000000000000000e+00 2.4140683946715424e-01 4.6582768897272481e-01  0.0000000000000000e+00 2.6662224646795118e-01 4.3941008318973318e-01  0.0000000000000000e+00 2.6437063266478239e-01 4.6558162422578842e-01  0.0000000000000000e+00 2.4865162721486742e-01 4.5091510770471877e-01  0.0000000000000000e+00 2.6214547772638513e-01 4.9553932719597443e-01  0.0000000000000000e+00 2.6655835096347152e-01 4.8602618639645090e-01  0.0000000000000000e+00 2.6577827090147915e-01 4.4699316606978423e-01  0.0000000000000000e+00 2.6621507759972551e-01 4.4764969937282623e-01  0.0000000000000000e+00 2.6640744154586254e-01 4.4593569675326244e-01  0.0000000000000000e+00 2.6651001397059831e-01 4.4825345604031047e-01  0.0000000000000000e+00 2.6635564257171485e-01 4.4998880670575542e-01  0.0000000000000000e+00 2.6658738708146745e-01 4.5059343885886360e-01  0.0000000000000000e+00 2.6646842218330880e-01 4.5232936729720735e-01  0.0000000000000000e+00 2.6663825099156413e-01 4.5292816119537183e-01  0.0000000000000000e+00 2.6655613807452777e-01 4.5466590811273100e-01  0.0000000000000000e+00 2.6666364379432500e-01 4.5526566379986111e-01  0.0000000000000000e+00 2.6665470122403867e-01 4.5353255959125754e-01  0.0000000000000000e+00 2.6661700065464811e-01 4.5586857234048989e-01  0.0000000000000000e+00 2.6651737238477569e-01 4.5412766862202292e-01  0.0000000000000000e+00 2.6641669163520121e-01 4.5646517187409352e-01  0.0000000000000000e+00 2.6622595121906745e-01 4.5472742260040327e-01  0.0000000000000000e+00 2.6606223369150411e-01 4.5706492585501068e-01  0.0000000000000000e+00 2.6628969357958560e-01 4.5880673088932972e-01  0.0000000000000000e+00 2.6587224597314896e-01 4.5940451546812439e-01  0.0000000000000000e+00 2.6555378783807382e-01 4.5766467983583003e-01  0.0000000000000000e+00 2.6530042780961371e-01 4.6000492176124630e-01  0.0000000000000000e+00 2.6565690345308202e-01 4.6174147500206836e-01  0.0000000000000000e+00 2.6502286466820268e-01 4.6233968634632300e-01  0.0000000000000000e+00 2.6541625199106728e-01 4.6407743562040060e-01  0.0000000000000000e+00 2.6471851197881796e-01 4.6467764423840646e-01  0.0000000000000000e+00 2.6423391695661402e-01 4.6294076862671590e-01  0.0000000000000000e+00 2.6386706523749748e-01 4.6527727222093562e-01  0.0000000000000000e+00 2.6438872208639586e-01 4.6701469285776498e-01  0.0000000000000000e+00 2.6347410418934908e-01 4.6761411351847137e-01  0.0000000000000000e+00 2.6286161969928334e-01 4.6587669756477434e-01  0.0000000000000000e+00 2.6403294351592405e-01 4.6935219611416762e-01  0.0000000000000000e+00 2.6305532586249086e-01 4.6995195009597007e-01  0.0000000000000000e+00 2.6365136009237544e-01 4.7168969937101790e-01  0.0000000000000000e+00 2.6453802661396175e-01 4.7108994538900267e-01  0.0000000000000000e+00 2.6261070566074690e-01 4.7228945335287043e-01  0.0000000000000000e+00 2.6419367511544589e-01 4.7342744864547182e-01  0.0000000000000000e+00 2.6661876267968887e-01 4.5700341181035181e-01  0.0000000000000000e+00 2.6498939050501380e-01 4.7282769466357183e-01  0.0000000000000000e+00 2.6468227093152497e-01 4.7516519791954437e-01  0.0000000000000000e+00 2.6538664706668313e-01 4.7456246701791810e-01  0.0000000000000000e+00 2.6511687877701989e-01 4.7689986970257381e-01  0.0000000000000000e+00 2.6434918213063252e-01 4.7750019980674602e-01  0.0000000000000000e+00 2.6482145503924526e-01 4.7924045044914815e-01  0.0000000000000000e+00 2.6399061722571471e-01 4.7984020443115205e-01  0.0000000000000000e+00 2.6573096066628399e-01 4.7630319321169601e-01  0.0000000000000000e+00 2.6593781153676610e-01 4.7396568995689436e-01  0.0000000000000000e+00 2.6619078588216599e-01 4.7570343923032776e-01  0.0000000000000000e+00 2.6633459997478121e-01 4.7336593597631826e-01  0.0000000000000000e+00 2.6649662318839518e-01 4.7510368524966423e-01  0.0000000000000000e+00 2.6657740050309414e-01 4.7276618199596099e-01  0.0000000000000000e+00 2.6638965133287867e-01 4.7743526415387016e-01  0.0000000000000000e+00 2.6449995768484363e-01 4.8157795370542827e-01  0.0000000000000000e+00 2.6360608309318428e-01 4.8217770768758378e-01  0.0000000000000000e+00 2.6636370279108224e-01 4.5239266400467892e-01  0.0000000000000000e+00 2.6300579150200154e-01 4.8043995841288367e-01  0.0000000000000000e+00 2.6255822059129730e-01 4.8277746167012986e-01  0.0000000000000000e+00 2.6186719087799470e-01 4.8103542517193559e-01  0.0000000000000000e+00 2.6135637017898872e-01 4.8337721565288061e-01  0.0000000000000000e+00 2.6057417632333352e-01 4.8163946637687233e-01  0.0000000000000000e+00 2.6642099167548050e-01 4.5640420233315254e-01  0.0000000000000000e+00 2.6652016222495534e-01 4.5874115961041817e-01  0.0000000000000000e+00 2.6000053185634625e-01 4.8397696963537962e-01  0.0000000000000000e+00 2.5912738686849895e-01 4.8223922035932559e-01  0.0000000000000000e+00 2.6664847258504853e-01 4.7450393126865748e-01  0.0000000000000000e+00 2.6666621312190308e-01 4.7216642801496050e-01  0.0000000000000000e+00 2.6663237296483089e-01 4.7042867874194266e-01  0.0000000000000000e+00 2.6665814880575056e-01 4.6982892476076976e-01  0.0000000000000000e+00 2.6208484482763555e-01 4.8511496492869177e-01  0.0000000000000000e+00 2.6666154057362473e-01 4.6809117548722295e-01  0.0000000000000000e+00 2.6662460830281803e-01 4.6749039880460319e-01  0.0000000000000000e+00 2.6598149159645867e-01 4.5298967332504214e-01  0.0000000000000000e+00 2.6615663619614993e-01 4.5065217007113756e-01  0.0000000000000000e+00 2.6568331276726559e-01 4.5125192404974829e-01  0.0000000000000000e+00 2.6589568929189433e-01 4.4891442079610755e-01  0.0000000000000000e+00 2.6533141473145189e-01 4.4951417477457684e-01  0.0000000000000000e+00 2.6505600142882019e-01 4.5185167802792098e-01  0.0000000000000000e+00 2.6461315226144594e-01 4.5011392875297773e-01  0.0000000000000000e+00 2.6427470218076199e-01 4.5245143200657795e-01  0.0000000000000000e+00 2.6374090188179661e-01 4.5071368273154572e-01  0.0000000000000000e+00 2.6333941502301794e-01 4.5305118598531852e-01  0.0000000000000000e+00 2.6271466359238249e-01 4.5131343671007734e-01  0.0000000000000000e+00 2.6225013995547425e-01 4.5365093996419259e-01  0.0000000000000000e+00 2.6153443739311949e-01 4.5191319068869351e-01  0.0000000000000000e+00 2.6100687697804875e-01 4.5425069394317596e-01  0.0000000000000000e+00 2.6020022328388775e-01 4.5251294466738401e-01  0.0000000000000000e+00 2.5960962609078936e-01 4.5485044792280965e-01  0.0000000000000000e+00 2.6315338237619296e-01 4.4897593345619968e-01  0.0000000000000000e+00 2.5871202126446863e-01 4.5311269864680703e-01  0.0000000000000000e+00 2.5805944537659647e-01 4.5545318975814147e-01  0.0000000000000000e+00 2.5899322404522751e-01 4.5718795117925215e-01  0.0000000000000000e+00 2.5738256214897753e-01 4.5779525668002957e-01  0.0000000000000000e+00 2.5835299338099682e-01 4.5952783645652839e-01  0.0000000000000000e+00 2.5667574183379760e-01 4.6012727250734359e-01  0.0000000000000000e+00 2.5768300539392924e-01 4.6186295769343078e-01  0.0000000000000000e+00 2.5594265626106788e-01 4.6246271167416109e-01  0.0000000000000000e+00 2.5698918878849314e-01 4.6420046095082190e-01  0.0000000000000000e+00 2.5518818737222315e-01 4.6480094099840263e-01  0.0000000000000000e+00 2.5626956732989525e-01 4.6653796420813748e-01  0.0000000000000000e+00 2.5440314464082703e-01 4.6713771818882421e-01  0.0000000000000000e+00 2.5552414101825044e-01 4.6887546746518305e-01  0.0000000000000000e+00 2.5359468155124143e-01 4.6947522144584219e-01  0.0000000000000000e+00 2.5475290985359927e-01 4.7121297072204604e-01  0.0000000000000000e+00 2.5276041360865342e-01 4.7181272470265284e-01  0.0000000000000000e+00 2.5395587383592189e-01 4.7355047397869854e-01  0.0000000000000000e+00 2.5484240452681517e-01 4.6072496239745919e-01  0.0000000000000000e+00 2.5585741894899183e-01 4.7295071999820459e-01  0.0000000000000000e+00 2.5151123417464344e-01 4.7007497542663201e-01  0.0000000000000000e+00 2.6076501562408211e-01 4.5017544141275057e-01  0.0000000000000000e+00 2.5706983133489442e-01 4.5371245262750004e-01  0.0000000000000000e+00 2.5776069723062967e-01 4.5137494937110079e-01  0.0000000000000000e+00 2.5061392945392374e-01 4.7241247868322378e-01  0.0000000000000000e+00 2.5322842905676929e-01 4.6539996891247021e-01  0.0000000000000000e+00 2.5987533487361730e-01 4.5892717322966620e-01  0.0000000000000000e+00 2.5509761485628102e-01 4.7528822325490494e-01  0.0000000000000000e+00 2.5313303296508133e-01 4.7588797723541199e-01  0.0000000000000000e+00 2.5431200591048053e-01 4.7762572651165403e-01  0.0000000000000000e+00 2.5973826326071348e-01 4.7990171710107454e-01  0.0000000000000000e+00 2.6415265547740013e-01 4.8391545696227839e-01  0.0000000000000000e+00 2.6495557893723765e-01 4.8331570298020265e-01  0.0000000000000000e+00 2.6192372029876104e-01 4.7055170407745872e-01  0.0000000000000000e+00 2.6492618223589959e-01 4.4778372057130711e-01  0.0000000000000000e+00 2.5849070562351112e-01 4.8457672361799475e-01  0.0000000000000000e+00 2.5940108253632077e-01 4.8631447289481788e-01  0.0000000000000000e+00 2.6660104880607743e-01 4.7156490560018238e-01  0.0000000000000000e+00 2.4927379888814810e-01 4.7067472940721167e-01  0.0000000000000000e+00 2.5229574864149573e-01 4.7822226224148390e-01  0.0000000000000000e+00 2.5350059211154663e-01 4.7996322976846589e-01  0.0000000000000000e+00 2.6464550865469488e-01 4.8565320623669800e-01  0.0000000000000000e+00 2.6535748098256978e-01 4.8505345225468111e-01  0.0000000000000000e+00 2.6630597594274652e-01 4.4831466681686921e-01  0.0000000000000000e+00 2.6608226096335597e-01 4.4657691754244805e-01  0.0000000000000000e+00 2.4831345738934027e-01 4.7301223266370807e-01  0.0000000000000000e+00 2.6611885755441461e-01 4.7162818670280154e-01  0.0000000000000000e+00 2.6595950311010541e-01 4.6347834645986452e-01  0.0000000000000000e+00 2.6291212331114583e-01 4.5538868923971387e-01  0.0000000000000000e+00 2.5798200210909694e-01 4.6593821022747478e-01  0.0000000000000000e+00 2.6623075402616775e-01 4.5814140356595223e-01  0.0000000000000000e+00 2.6474949021723998e-01 4.5434537605015346e-01  0.0000000000000000e+00 2.6607310154529512e-01 4.9264335436228290e-01  0.0000000000000000e+00 2.5479757249300433e-01 4.4424222075377151e-01  0.0000000000000000e+00 2.5602755616935796e-01 4.5197470335184670e-01  0.0000000000000000e+00 2.4168026952830626e-01 4.7690832241534675e-01  0.0000000000000000e+00 2.5101446316394471e-01 4.7648773121592336e-01  0.0000000000000000e+00 2.4950025038023749e-01 4.8953051758555149e-01  0.0000000000000000e+00 2.6508464262503401e-01 4.8739095551077438e-01  0.0000000000000000e+00 2.6430963351921899e-01 4.8799070949302420e-01  0.0000000000000000e+00 2.6636784243223288e-01 4.6047890739709019e-01  0.0000000000000000e+00 2.6666499456310244e-01 4.6575527654874049e-01  0.0000000000000000e+00 2.6665558254270638e-01 4.5934091563042373e-01  0.0000000000000000e+00 2.6560451448704103e-01 4.8271594899875137e-01  0.0000000000000000e+00 2.6591546540042221e-01 4.8445369827255003e-01  0.0000000000000000e+00 2.5527556951373970e-01 4.5431559705589108e-01  0.0000000000000000e+00 2.5690820883767412e-01 4.7468846927435054e-01  0.0000000000000000e+00 2.6141634937117936e-01 4.7288815100749720e-01  0.0000000000000000e+00 2.5760497615238470e-01 4.7235096601731164e-01  0.0000000000000000e+00 2.5782821952469304e-01 4.8691422687752861e-01  0.0000000000000000e+00 2.5877582836286511e-01 4.8865197615487316e-01  0.0000000000000000e+00 2.5682689147958837e-01 4.8517647760021776e-01  0.0000000000000000e+00 2.5140993666388212e-01 4.8056298374910089e-01  0.0000000000000000e+00 2.5266337345953394e-01 4.8230073302557530e-01  0.0000000000000000e+00 2.6642951083611260e-01 4.4597716356266309e-01  0.0000000000000000e+00 2.6661303571290984e-01 4.4652242291681377e-01  0.0000000000000000e+00 2.6624302778161352e-01 4.4423941428924241e-01  0.0000000000000000e+00 2.5414042719810365e-01 4.5257445733253915e-01  0.0000000000000000e+00 2.5332348774566460e-01 4.5491196058917993e-01  0.0000000000000000e+00 2.5675565398999917e-01 4.4963720009581959e-01  0.0000000000000000e+00 2.6598908405727989e-01 4.5987910610311300e-01  0.0000000000000000e+00 2.6616301649730578e-01 4.6221816441485214e-01  0.0000000000000000e+00 2.6569049263669808e-01 4.6161689913673887e-01  0.0000000000000000e+00 2.6590204483584207e-01 4.6395440296922547e-01  0.0000000000000000e+00 2.6575592010710203e-01 4.6581518489420859e-01  0.0000000000000000e+00 2.6661101617136379e-01 4.6635264159651330e-01  0.0000000000000000e+00 2.6489135407488035e-01 4.5826443381696230e-01  0.0000000000000000e+00 2.5543725964929775e-01 4.7936347578801541e-01  0.0000000000000000e+00 2.6235178070381715e-01 4.7870220913689265e-01  0.0000000000000000e+00 2.5610136860265670e-01 4.8751398085985281e-01  0.0000000000000000e+00 2.6606944815867845e-01 4.5580263016219030e-01  0.0000000000