<?xml version="1.0"?>
<VTKFile type="UnstructuredGrid"  version="0.1"  >
<UnstructuredGrid>
<Piece  NumberOfPoints="645" NumberOfCells="1208">
<Points>
<DataArray  type="Float64"  NumberOfComponents="3"  format="ascii">500 250 0  0 250 0  250 500 0  250 0 0  269.6147739849193 499.2293334291141 0  289.1086163645346 496.9220851322369 0  308.3613411380662 493.0924800576239 0  327.2542488153708 487.7641290017751 0  345.6708583410312 480.9698830243682 0  363.4976252268579 472.7516308983252 0  380.6246415053586 463.1600408885224 0  396.9463134355418 452.2542483304208 0  412.3620124901979 440.1014910518401 0  426.7766957038264 426.7766948894474 0  440.1014917275007 412.3620116991009 0  452.2542488669409 396.9463126970852 0  463.1600413033558 380.6246408284121 0  472.751631216677 363.4976246020575 0  480.9698832532689 345.6708577884161 0  487.7641291438106 327.2542483782306 0  493.0924801408104 308.3613407915692 0  496.9220851690424 289.1086161321545 0  499.2293334387019 269.6147738630947 0  499.229333430357 230.3852260308728 0  496.9220851356368 210.8913836569316 0  493.0924800663345 191.6386588982162 0  487.7641290184218 172.7457512358624 0  480.9698830399936 154.3291416966919 0  472.7516309070343 136.5023747902346 0  463.1600408987175 119.3753585112783 0  452.2542483410546 103.0536865790945 0  440.1014910714183 87.63798753272525 0  426.7766948943133 73.22330430103958 0  412.3620117009348 59.89850827406559 0  396.9463126913573 47.74575112889752 0  380.6246408261736 36.83995869527249 0  363.4976245953484 27.24836877990464 0  345.6708577827026 19.03011674436451 0  327.2542483716913 12.23587085406467 0  308.361340780398 6.907519856507577 0  289.1086161262194 3.077914830017676 0  269.6147738583604 0.7706665609254912 0  230.3852260302092 0.7706665696952655 0  210.8913836535466 3.077914864899299 0  191.6386589008631 6.907519933030017 0  172.7457512318028 12.23587098289721 0  154.3291416990867 19.03011695901438 0  136.5023748091553 27.24836908332517 0  119.3753585100802 36.83995910201668 0  103.0536865836863 47.74575165560921 0  87.6379875279894 59.89850893262656 0  73.22330429312285 73.2233051136034 0  59.89850825318987 87.6379883235075 0  47.74575112052588 103.0536873201654 0  36.83995867902311 119.375359200343 0  27.24836876726107 136.502375429466 0  19.03011674184958 154.3291422233689 0  12.23587084468659 172.7457516571714 0  6.90751985664113 191.6386592190457 0  3.07791483051173 210.8913838706611 0  0.7706665612319625 230.3852261377458 0  0.770666570878916 269.6147739848303 0  3.077914868063033 289.1086163664283 0  6.907519941211973 308.3613411332171 0  12.23587099861078 327.2542488165586 0  19.03011697319531 345.6708583351491 0  27.24836908997781 363.4976252039013 0  36.83995910945072 380.624641502051 0  47.74575166272689 396.9463134261104 0  59.89850895284744 412.3620124956862 0  73.223305118437 426.7766957117107 0  87.63798832904175 440.1014917515369 0  103.0536873198473 452.2542488792431 0  119.3753591950333 463.1600413177231 0  136.502375416904 472.7516312263383 0  154.3291422204512 480.9698832569418 0  172.7457516527922 487.7641291538905 0  191.6386592093489 493.0924801410308 0  210.891383865478 496.9220851686673 0  230.38522613373 499.229333438452 0  408.0297414380137 79.04438812052823 0  470.6929872351991 328.8394125533284 0  327.5791944935511 30.66901791634585 0  186.8066927430735 474.0665667617239 0  241.1725543363619 17.80467707257488 0  481.8957906849985 237.8895419164845 0  241.9028711997863 481.7677876757489 0  22.04240264610397 260.0195362144032 0  66.93524317993541 393.9967576354165 0  407.5748062742585 421.804202868455 0  91.14498776833713 78.15950434153694 0  443.5721620986452 120.6592159456753 0  47.90357490700103 137.2584608638679 0  121.9854148726425 53.89110248018969 0  346.0986346915193 460.9657062005573 0  37.15978683308909 348.686261000426 0  443.2617512614241 379.6653657108164 0  469.6395010170255 166.6128966790255 0  169.4214360799271 31.58224567687904 0  120.0926710183088 443.0188983543295 0  25.93343325113663 186.8066927541892 0  294.4711068775667 479.0497777351075 0  25.93343346326644 313.1933076022177 0  379.5895462631086 444.9259942605202 0  477.3836837079734 202.381284598844 0  91.97025859159305 420.9556118868529 0  201.8099842058005 21.62718472283686 0  378.9340731306958 56.62233582097542 0  452.9866090845981 363.3843712213892 0  433.7891058935094 362.712636160478 0  423.9473865733744 379.4564211535431 0  414.2436151024774 362.5677032958672 0  424.001708291139 345.6669244533275 0  404.4610922180836 345.5134771956895 0  414.341417486195 328.5773255591307 0  394.7677429029752 328.480795053565 0  404.6609853910698 311.5262601202149 0  385.031291303632 311.4357195826571 0  375.101270673993 328.3607598117625 0  365.3740866097247 311.3257829175604 0  355.5083459394236 328.2997490723603 0  345.7718933714782 311.2546684470915 0  335.8786468089485 328.2092240351425 0  326.1421942370671 311.1641433897183 0  336.003344415795 294.1838138923774 0  316.3860344407723 294.1066032295112 0  306.5124951000444 311.0736183338123 0  296.7501789069282 294.0121813369556 0  306.6515351153541 277.0655652779993 0  287.0395899630898 276.98345703061 0  296.9328365330605 260.0289014374702 0  277.2982248613483 259.9358158720167 0  267.3990712864435 276.8845676964974 0  257.6713884944854 259.8456251093223 0  267.5666848269919 242.8932957192846 0  247.9365419809313 242.8056592582466 0  238.0437391039621 259.7573262582974 0  257.8302322568193 225.8482150584726 0  238.2005331082895 225.757689997251 0  248.0937796848919 208.8031343943687 0  267.7234788341136 208.8936594571897 0  228.4640805329348 208.712609333587 0  257.9870262635756 191.8485787959149 0  394.9245487736064 294.4811717944075 0  277.6167254091284 191.9391038586934 0  267.8802728403858 174.8940232011079 0  287.5005584344734 175.0117093161379 0  277.7685743892544 157.9663496219783 0  258.1421294336732 157.8702099927723 0  268.0370668499073 140.8943869520292 0  248.4073677066822 140.803861887803 0  297.4032185518097 158.029992671988 0  307.1396711152761 175.0750733211352 0  317.0329176840529 158.1205177336628 0  326.7693702482894 175.1655983760161 0  336.6626168121476 158.2110427905018 0  346.3990693731281 175.2561234311168 0  326.9054332650823 141.220514475552 0  258.300614283603 123.8493062912708 0  238.6709151364965 123.7587812267517 0  345.602770870788 345.2345146507195 0  228.7776685563935 140.7133368276114 0  219.0412159824577 123.6682561607107 0  209.1548086869 140.6568288028854 0  199.4115168211257 123.5777310947873 0  189.5182702336654 140.5322867083881 0  414.5061001206328 294.5791962676446 0  404.8178099709576 277.5266248278496 0  179.7818176563396 123.4872060318257 0  169.8885710669681 140.4417616462852 0  356.2923159345929 158.3015678516131 0  366.0287684987967 175.3466484913704 0  356.1355219340599 192.3012040743702 0  375.7652210728186 192.3917291327877 0  209.3047634085723 106.6231754828329 0  365.8719745031602 209.3462847214261 0  385.4473336989289 209.4589172776483 0  325.9854002589402 345.1637796339881 0  335.7218528424219 362.2088602706556 0  316.0921537106989 362.1183352318304 0  325.8286062932657 379.163415866528 0  306.198907162322 379.0728908286862 0  296.4624545814172 362.0278101960448 0  286.5692080329665 378.982365791018 0  276.8327554515532 361.9372851563691 0  266.939508902649 378.8918407521974 0  257.2030563201347 361.8467601163857 0  247.3098097697766 378.8013157143188 0  237.5733571858447 361.7562350760078 0  227.6801106339195 378.7107906764817 0  217.943658048477 361.6657100354885 0  208.0504114944145 378.6202656389371 0  198.313958909151 361.5751849900388 0  257.046262353733 395.8463963506437 0  188.4207123491114 378.5297405967377 0  178.6942702061005 361.4572585380363 0  188.5775063311286 344.5301043308571 0  168.9825719925815 344.3679587423489 0  178.862757141982 327.4597476508416 0  159.2319047656242 327.3721603214715 0  169.1046011625246 310.4399430048529 0  149.4749020045267 310.3494179549329 0  159.3681485763936 293.3948623397931 0  139.7621343179957 293.2923655078865 0  149.6316959897331 276.3497816754953 0  130.001996832586 276.2592566257254 0  139.8952434039481 259.3047010132285 0  120.2655442487169 259.2141759632096 0  130.1587908193085 242.2596203521963 0  110.5290916658602 242.1690953021686 0  120.4223382355493 225.2145396926986 0  139.5816554329651 327.3039735703393 0  140.0520373886098 225.3050647418833 0  100.6358450969261 259.1236509112424 0  217.7868640819771 395.665346280658 0  168.7910131993309 378.4392155450739 0  178.5274657798013 395.4842962032838 0  90.89939251396862 242.0785702520503 0  120.1087502632246 293.2138122376823 0  198.4827020443107 327.560288315778 0  130.3155848042933 208.2599840821261 0  110.6858856511 208.169459032866 0  120.5791322200218 191.2149034219518 0  179.6250236464644 157.4868423201703 0  248.5641617155314 106.8042256262046 0  268.1938608640521 106.8947506897054 0  218.5708339532014 225.6671649402842 0  296.3097884844733 395.9656221920631 0  160.1521184905691 123.396680968142 0  170.0453650783119 106.4421253476802 0  385.658427623638 175.451920499978 0  81.00614594559451 259.0331258609116 0  101.0554053508192 191.1247040573367 0  110.8426796353596 174.1698227613512 0  258.4574082944565 89.84967002797657 0  278.0871074405096 89.94019509160398 0  345.4583054269535 379.2539409100921 0  335.5650588729622 396.2084965020994 0  71.26969336281471 241.9880452024695 0  316.8761236845766 192.1201539629169 0  316.5489845965977 260.1172740927201 0  247.4666037372683 344.8016794754746 0  169.261395148653 276.4403067246208 0  424.4475090085939 277.6171671056567 0  477.5061263880716 295.9860753924438 0  297.7010004405789 21.78753761157149 0  152.5329738481066 461.4223243306178 0  158.8977666313233 395.3937711508539 0  18.80645331331318 222.6364406178562 0  91.05618649809102 208.0789339835232 0  67.55529962754241 105.2642692875928 0  268.3506548722531 72.89511443289081 0  248.7209557265558 72.80458936723331 0  414.7110714038412 260.5720779140291 0  375.5311866215619 226.3973061791794 0  385.1881
[...]
<PointData  Vectors="f_12"> 
<DataArray  type="Float64"  Name="f_12"  NumberOfComponents="3" format="ascii">0.0000000000000000e+00 3.4322744768446861e-01 9.5775126900071694e-01  0.0000000000000000e+00 6.2810119004275111e-01 6.3924937012575811e-01  0.0000000000000000e+00 1.5298704233439807e-02 2.7961001455242152e-01  0.0000000000000000e+00 8.9356336303296280e-01 1.9944473272826874e-01  0.0000000000000000e+00 1.5288145829578296e-02 2.7441537164642921e-01  0.0000000000000000e+00 1.5289991691849464e-02 2.7514814334368071e-01  0.0000000000000000e+00 1.5306685351102306e-02 2.8239266403708579e-01  0.0000000000000000e+00 1.5365947235157273e-02 2.9664755977869028e-01  0.0000000000000000e+00 1.5500089296713681e-02 3.1596262192182478e-01  0.0000000000000000e+00 1.5732278931643331e-02 3.3867664426290922e-01  0.0000000000000000e+00 1.6107714313090490e-02 3.6568728241399484e-01  0.0000000000000000e+00 1.6781637656877943e-02 4.0279070305935610e-01  0.0000000000000000e+00 1.7997663972379740e-02 4.5288801782916221e-01  0.0000000000000000e+00 1.9989194596918499e-02 5.1266533172733342e-01  0.0000000000000000e+00 2.3057446929801887e-02 5.7921275763183022e-01  0.0000000000000000e+00 2.8321826320339322e-02 6.5945579149199840e-01  0.0000000000000000e+00 3.7853587663534576e-02 7.5099029044233501e-01  0.0000000000000000e+00 5.2905787741942149e-02 8.3754135129986096e-01  0.0000000000000000e+00 7.7944004135249656e-02 9.1836949859869921e-01  0.0000000000000000e+00 1.1360868569883553e-01 9.7744505612015109e-01  0.0000000000000000e+00 1.6021850161607035e-01 1.0109160914518642e+00  0.0000000000000000e+00 2.1630766986084096e-01 1.0168354211322370e+00  0.0000000000000000e+00 2.8133560452471118e-01 9.9626462861752740e-01  0.0000000000000000e+00 4.1078254614312132e-01 9.0046025561551046e-01  0.0000000000000000e+00 4.7200744674764655e-01 8.3754311559464512e-01  0.0000000000000000e+00 5.3136060721186817e-01 7.6807248936670425e-01  0.0000000000000000e+00 5.8562832162144107e-01 6.9810757782667965e-01  0.0000000000000000e+00 6.3471083096643111e-01 6.2986072555497219e-01  0.0000000000000000e+00 6.7840306761031444e-01 5.6542464375459467e-01  0.0000000000000000e+00 7.1562853896387268e-01 5.0791839597719268e-01  0.0000000000000000e+00 7.4887394913207550e-01 4.5456712080526879e-01  0.0000000000000000e+00 7.7811916263365499e-01 4.0611091070401129e-01  0.0000000000000000e+00 8.0201491884155940e-01 3.6540247278611226e-01  0.0000000000000000e+00 8.2144512563951722e-01 3.3160422648376270e-01  0.0000000000000000e+00 8.3881484530251704e-01 3.0078902144976860e-01  0.0000000000000000e+00 8.5263681158445570e-01 2.7587067918198060e-01  0.0000000000000000e+00 8.6395294620045882e-01 2.5515405722899714e-01  0.0000000000000000e+00 8.7367905640018251e-01 2.3714168927484156e-01  0.0000000000000000e+00 8.8069119199622037e-01 2.2398463009972169e-01  0.0000000000000000e+00 8.8570458574793332e-01 2.1448129811466618e-01  0.0000000000000000e+00 8.9002897250671831e-01 2.0623905527791961e-01  0.0000000000000000e+00 8.9335290606779827e-01 1.9987041654203405e-01  0.0000000000000000e+00 8.9453429571143928e-01 1.9758240340407848e-01  0.0000000000000000e+00 8.9364498166100392e-01 1.9929280893564438e-01  0.0000000000000000e+00 8.9162443115756251e-01 2.0316912679094210e-01  0.0000000000000000e+00 8.8944444170525450e-01 2.0735503454419052e-01  0.0000000000000000e+00 8.8607267479410468e-01 2.1379097535240818e-01  0.0000000000000000e+00 8.8105598619959291e-01 2.2328661768871289e-01  0.0000000000000000e+00 8.7537167911861991e-01 2.3397222836609918e-01  0.0000000000000000e+00 8.6833944430692200e-01 2.4706106371353606e-01  0.0000000000000000e+00 8.6000629799579353e-01 2.6241320798882894e-01  0.0000000000000000e+00 8.5104092097541739e-01 2.7876984639442515e-01  0.0000000000000000e+00 8.4052040580783705e-01 2.9774711709624935e-01  0.0000000000000000e+00 8.2767232945199876e-01 3.2062470067803106e-01  0.0000000000000000e+00 8.1382315955671569e-01 3.4493196334320197e-01  0.0000000000000000e+00 7.9814234683104268e-01 3.7210673386418958e-01  0.0000000000000000e+00 7.7803768328122180e-01 4.0621864681378200e-01  0.0000000000000000e+00 7.5695214603853878e-01 4.4130660023195611e-01  0.0000000000000000e+00 7.3223709648497204e-01 4.8146354511407741e-01  0.0000000000000000e+00 7.0269112188818939e-01 5.2814054697741941e-01  0.0000000000000000e+00 6.6844811301929197e-01 5.8037277001263998e-01  0.0000000000000000e+00 5.8622068113320214e-01 6.9730827279249108e-01  0.0000000000000000e+00 5.3139143463571525e-01 7.6806862022392097e-01  0.0000000000000000e+00 4.7277064250137113e-01 8.3665007132444802e-01  0.0000000000000000e+00 4.0666229216520144e-01 9.0460718058686196e-01  0.0000000000000000e+00 3.3570875681657442e-01 9.6306413474108665e-01  0.0000000000000000e+00 2.6305052793254291e-01 1.0046151121439679e+00  0.0000000000000000e+00 1.9462167451208032e-01 1.0184333854916456e+00  0.0000000000000000e+00 1.3321652141025109e-01 9.9682891671530094e-01  0.0000000000000000e+00 8.6427595204040572e-02 9.3754918397294340e-01  0.0000000000000000e+00 5.4060221346935639e-02 8.4416242292234256e-01  0.0000000000000000e+00 3.6358857248066596e-02 7.4060095682494009e-01  0.0000000000000000e+00 2.6347063605132420e-02 6.3381299591097040e-01  0.0000000000000000e+00 2.1154488085418581e-02 5.4139058800037165e-01  0.0000000000000000e+00 1.8448880615838041e-02 4.6843369823879144e-01  0.0000000000000000e+00 1.6841590730336062e-02 4.0572119938599988e-01  0.0000000000000000e+00 1.6072798624070708e-02 3.6371590872194198e-01  0.0000000000000000e+00 1.5671611405394165e-02 3.3336072462446259e-01  0.0000000000000000e+00 1.5451226262370532e-02 3.0976023492627824e-01  0.0000000000000000e+00 1.5339340163295552e-02 2.9166259609223266e-01  0.0000000000000000e+00 8.0728881393268770e-01 3.5627984758109088e-01  0.0000000000000000e+00 1.0064740121576952e-01 9.6028850060516890e-01  0.0000000000000000e+00 8.7173677881575617e-01 2.4070421725306101e-01  0.0000000000000000e+00 1.5932021085416470e-02 3.5376135529204172e-01  0.0000000000000000e+00 8.8731860805485663e-01 2.1135718846529850e-01  0.0000000000000000e+00 3.8784061841026579e-01 9.2096275345148904e-01  0.0000000000000000e+00 1.5342275302631297e-02 2.9184905428659336e-01  0.0000000000000000e+00 5.9341851602419415e-01 6.8745276721237325e-01  0.0000000000000000e+00 1.0789100858738143e-01 9.7173176607960798e-01  0.0000000000000000e+00 1.9053576437026740e-02 4.8655333851859189e-01  0.0000000000000000e+00 8.4949220933893721e-01 2.8155307594119494e-01  0.0000000000000000e+00 7.2983316870620440e-01 4.8536842495891919e-01  0.0000000000000000e+00 7.9624735241777056e-01 3.7533146591932887e-01  0.0000000000000000e+00 8.6678598374379923e-01 2.4990000473143148e-01  0.0000000000000000e+00 1.5663000700574550e-02 3.3252547058503273e-01  0.0000000000000000e+00 2.9479003977429907e-01 9.8881055365229920e-01  0.0000000000000000e+00 3.2965602049524381e-02 7.0997836866068342e-01  0.0000000000000000e+00 6.1461296912071417e-01 6.5835279904747401e-01  0.0000000000000000e+00 8.8099557204086676e-01 2.2337105307551422e-01  0.0000000000000000e+00 2.3920222174667313e-02 5.9492708999610733e-01  0.0000000000000000e+00 7.3692876289574993e-01 4.7395035054324541e-01  0.0000000000000000e+00 1.5312042840777123e-02 2.8423093017424256e-01  0.0000000000000000e+00 4.3436628885655737e-01 8.7755742557660132e-01  0.0000000000000000e+00 1.6491482670705777e-02 3.8795881834271612e-01  0.0000000000000000e+00 5.0673414142814610e-01 7.9795206267492946e-01  0.0000000000000000e+00 4.4394847076163292e-02 7.9511239701204284e-01  0.0000000000000000e+00 8.8628447036208335e-01 2.1332671267130693e-01  0.0000000000000000e+00 8.4043048413704813e-01 2.9789863447301984e-01  0.0000000000000000e+00 4.5495573653905212e-02 8.0104252606517323e-01  0.0000000000000000e+00 4.1783073294452307e-02 7.7937970917589749e-01  0.0000000000000000e+00 3.0050063600394313e-02 6.8044110294444404e-01  0.0000000000000000e+00 4.0006882404618464e-02 7.6876306293175456e-01  0.0000000000000000e+00 6.0495193443439982e-02 8.6951932482613137e-01  0.0000000000000000e+00 6.2318771818809245e-02 8.7705230385272726e-01  0.0000000000000000e+00 9.6607006949830154e-02 9.5686009143386985e-01  0.0000000000000000e+00 1.0611686562346995e-01 9.7161521290474473e-01  0.0000000000000000e+00 1.5712343999629161e-01 1.0120671919570017e+00  0.0000000000000000e+00 1.7784981328431504e-01 1.0186051902876680e+00  0.0000000000000000e+00 1.2073831368030874e-01 9.8904156987775116e-01  0.0000000000000000e+00 2.0221286419028411e-01 1.0204230414630946e+00  0.0000000000000000e+00 1.3865260542391786e-01 1.0039218858670120e+00  0.0000000000000000e+00 2.2501246577225484e-01 1.0175176194694691e+00  0.0000000000000000e+00 1.5752268281620532e-01 1.0136738728895478e+00  0.0000000000000000e+00 2.4345720531425299e-01 1.0125455016273190e+00  0.0000000000000000e+00 3.1153294774713669e-01 9.7997882647878332e-01  0.0000000000000000e+00 3.2556153910173447e-01 9.7077023001560447e-01  0.0000000000000000e+00 2.5730988167312024e-01 1.0076151078899798e+00  0.0000000000000000e+00 3.3721475560255099e-01 9.6261114121969760e-01  0.0000000000000000e+00 4.0389927943194365e-01 9.0725252759698705e-01  0.0000000000000000e+00 4.1436198861916745e-01 8.9736016080223469e-01  0.0000000000000000e+00 4.7363191733661653e-01 8.3592643518737908e-01  0.0000000000000000e+00 4.8183147273756138e-01 8.2675284764558798e-01  0.0000000000000000e+00 4.2265975208119538e-01 8.8929691722676085e-01  0.0000000000000000e+00 4.8839641630304026e-01 8.1929903807427451e-01  0.0000000000000000e+00 5.4312203745940346e-01 7.5352119101346671e-01  0.0000000000000000e+00 5.4839673585315973e-01 7.4684260714339401e-01  0.0000000000000000e+00 4.9381526504714601e-01 8.1307535024676292e-01  0.0000000000000000e+00 5.9515438411569277e-01 6.8522935443670863e-01  0.0000000000000000e+00 5.9931853969897630e-01 6.7953879243811643e-01  0.0000000000000000e+00 6.4204443069087402e-01 6.1930679756850837e-01  0.0000000000000000e+00 6.3784110797014759e-01 6.2538242559081858e-01  0.0000000000000000e+00 6.4538511849188629e-01 6.1445481128691060e-01  0.0000000000000000e+00 6.7834861254003542e-01 5.6551929284929525e-01  0.0000000000000000e+00 2.4017113684078426e-01 1.0137074659612444e+00  0.0000000000000000e+00 6.7430315330046986e-01 5.7162702179631852e-01  0.0000000000000000e+00 7.1090097011162490e-01 5.1536325561006568e-01  0.0000000000000000e+00 7.0651211275813708e-01 5.2223137406794029e-01  0.0000000000000000e+00 7.3945875796301519e-01 4.6986515018339403e-01  0.0000000000000000e+00 7.4270263059355068e-01 4.6460872867625064e-01  0.0000000000000000e+00 7.6725476482878596e-01 4.2426350058947365e-01  0.0000000000000000e+00 7.6988510897762064e-01 4.1988175259495047e-01  0.0000000000000000e+00 7.3529600016845431e-01 4.7658443158791142e-01  0.0000000000000000e+00 7.0103421698294732e-01 5.3075756805398577e-01  0.0000000000000000e+00 7.2988639840809111e-01 4.8527217297599640e-01  0.0000000000000000e+00 6.9414325148597578e-01 5.4141062200287315e-01  0.0000000000000000e+00 7.2303231368899690e-01 4.9620851104394093e-01  0.0000000000000000e+00 6.8574746179688262e-01 5.5428150594597958e-01  0.0000000000000000e+00 7.5414431943405202e-01 4.4593161509133905e-01  0.0000000000000000e+00 7.9234396312245803e-01 3.8198940296362655e-01  0.0000000000000000e+00 7.9439271617547114e-01 3.7848892619772440e-01  0.0000000000000000e+00 8.4647231944858542e-02 9.3911660447772638e-01  0.0000000000000000e+00 7.7191629530643069e-01 4.1649020919092755e-01  0.0000000000000000e+00 7.9593137450087348e-01 3.7585524351665689e-01  0.0000000000000000e+00 7.7348058433671552e-01 4.1387324603169828e-01  0.0000000000000000e+00 7.9711488020796384e-01 3.7382637320686191e-01  0.0000000000000000e+00 7.7488111652602076e-01 4.1152654141717288e-01  0.0000000000000000e+00 2.1454091909184830e-01 1.0186526630610770e+00  0.0000000000000000e+00 3.0279374741535575e-01 9.8551274417496859e-01  0.0000000000000000e+00 7.9814769506220618e-01 3.7205360656303632e-01  0.0000000000000000e+00 7.7617225359116571e-01 4.0936027841982581e-01  0.0000000000000000e+00 7.1454842956310305e-01 5.0963348856691937e-01  0.0000000000000000e+00 6.7562887158500917e-01 5.6963500631944297e-01  0.0000000000000000e+00 6.4356401672221197e-01 6.1710885559607731e-01  0.0000000000000000e+00 6.3065596533312585e-01 6.3570108022539529e-01  0.0000000000000000e+00 8.1592764028425280e-01 3.4125458855204654e-01  0.0000000000000000e+00 5.9303868060348597e-01 6.8811925536578522e-01  0.0000000000000000e+00 5.7783651363203470e-01 7.0855847564367591e-01  0.0000000000000000e+00 9.6431657567321208e-02 9.6073144382340336e-01  0.0000000000000000e+00 4.8663740614336475e-02 8.2510301245407636e-01  0.0000000000000000e+00 5.3432686769259226e-02 8.4869258859092667e-01  0.0000000000000000e+00 3.0168890493615708e-02 6.8692854442801976e-01  0.0000000000000000e+00 3.1503271199199802e-02 7.0260410872291601e-01  0.0000000000000000e+00 5.9086764277269388e-02 8.7216311182941431e-01  0.0000000000000000e+00 3.3026639076938438e-02 7.1923049264772798e-01  0.0000000000000000e+00 6.5110485050327696e-02 8.9305150752901552e-01  0.0000000000000000e+00 3.4688060005993032e-02 7.3566335012763395e-01  0.0000000000000000e+00 7.0761693326497843e-02 9.0962835732470426e-01  0.0000000000000000e+00 3.6673098801602806e-02 7.5283359203633771e-01  0.0000000000000000e+00 7.6170224354823846e-02 9.2315009758159638e-01  0.0000000000000000e+00 3.9445068626735746e-02 7.7338024628835933e-01  0.0000000000000000e+00 8.1919142742239784e-02 9.3540733976467694e-01  0.0000000000000000e+00 4.3396210862673174e-02 7.9813741576157571e-01  0.0000000000000000e+00 8.8300516916146321e-02 9.4708181961476445e-01  0.0000000000000000e+00 2.3435036869818217e-02 5.8987949307704624e-01  0.0000000000000000e+00 4.8575104478757611e-02 8.2524880088914720e-01  0.0000000000000000e+00 9.5697354497752435e-02 9.5888664795087963e-01  0.0000000000000000e+00 1.5836475578087270e-01 1.0133624909151744e+00  0.0000000000000000e+00 1.6715475285900444e-01 1.0161630252564704e+00  0.0000000000000000e+00 2.3583448944307156e-01 1.0144613992019780e+00  0.0000000000000000e+00 2.4615964202111607e-01 1.0114336884924910e+00  0.0000000000000000e+00 3.1418093909534706e-01 9.7817368639126145e-01  0.0000000000000000e+00 3.2421318398572863e-01 9.7155626933237083e-01  0.0000000000000000e+00 3.8923518668001300e-01 9.2050885172112962e-01  0.0000000000000000e+00 3.9888554293120193e-01 9.1177957829989609e-01  0.0000000000000000e+00 4.5809058025561616e-01 8.5282821740454284e-01  0.0000000000000000e+00 4.6660349978462767e-01 8.4360473676939018e-01  0.0000000000000000e+00 5.2008631194084864e-01 7.8196749954705491e-01  0.0000000000000000e+00 5.2816967991855102e-01 7.7209668494110884e-01  0.0000000000000000e+00 5.7475170430338118e-01 7.1261190117937212e-01  0.0000000000000000e+00 5.8182014265861370e-01 7.0320221302348429e-01  0.0000000000000000e+00 6.2278813718017911e-01 6.4685451317990139e-01  0.0000000000000000e+00 2.5828867709339304e-01 1.0071352591967115e+00  0.0000000000000000e+00 6.1730530774073200e-01 6.5458126212893197e-01  0.0000000000000000e+00 5.3800270251430549e-01 7.5990447017762086e-01  0.0000000000000000e+00 2.5860351320954964e-02 6.3039503685649556e-01  0.0000000000000000e+00 5.5025018736451506e-02 8.5329240203465873e-01  0.0000000000000000e+00 3.1350097898979690e-02 6.9883762792048842e-01  0.0000000000000000e+00 5.9045906948525506e-01 6.9157555025500805e-01  0.0000000000000000e+00 4.1049567680611043e-01 9.0094179449137568e-01  0.0000000000000000e+00 2.2722463675006577e-01 1.0164763850473151e+00  0.0000000000000000e+00 6.6049715231629702e-01 5.9224701727744122e-01  0.0000000000000000e+00 6.6524593626261486e-01 5.8518566022431662e-01  0.0000000000000000e+00 6.9727907884481899e-01 5.3656321015258590e-01  0.0000000000000000e+00 7.5019427952606532e-01 4.5240167656164820e-01  0.0000000000000000e+00 8.1319978361905532e-01 3.4601555013720359e-01  0.0000000000000000e+00 8.1121024682442888e-01 3.4948006063215631e-01  0.0000000000000000e+00 6.0280526782125143e-01 6.7474836927936122e-01  0.0000000000000000e+00 2.2349392212320001e-02 5.6895091095650341e-01  0.0000000000000000e+00 7.9915580666172836e-01 3.7032144752679069e-01  0.0000000000000000e+00 8.1777664322238230e-01 3.3801986983962573e-01  0.0000000000000000e+00 6.6355316801079856e-01 5.8772837951998491e-01  0.0000000000000000e+00 5.4966525709719438e-01 7.4518110050285336e-01  0.0000000000000000e+00 7.0178139768447734e-01 5.2958580928916321e-01  0.0000000000000000e+00 7.3054759844646644e-01 4.8420574638179054e-01  0.0000000000000000e+00 8.3048747247464361e-01 3.1562216880468258e-01  0.0000000000000000e+00 8.2815103102714172e-01 3.1976089542349623e-01  0.0000000000000000e+00 2.9114783252586526e-02 6.7360293883889688e-01  0.0000000000000000e+00 2.1641659270143290e-02 5.5374559824052716e-01  0.0000000000000000e+00 6.0101336254140636e-01 6.7718442404416124e-01  0.0000000000000000e+00 6.6247230536385604e-01 5.8932907488254593e-01  0.0000000000000000e+00 4.6329382518378820e-01 8.4727182562952152e-01  0.0000000000000000e+00 1.3782626890303512e-01 1.0033790599619850e+00  0.0000000000000000e+00 4.5114846807656417e-01 8.6022259168547854e-01  0.0000000000000000e+00 2.7522439248197023e-01 9.9993231803630822e-01  0.0000000000000000e+00 1.8584856638477684e-01 1.0176360573310914e+00  0.0000000000000000e+00 8.8098758580285164e-01 2.2337357906736854e-01  0.0000000000000000e+00 1.7721587407698296e-02 4.4256561145433931e-01  0.0000000000000000e+00 3.5741398316115884e-02 7.3927209632226720e-01  0.0000000000000000e+00 6.7831489316500071e-01 5.6562775988654457e-01  0.0000000000000000e+00 6.7115656844706195e-01 5.7634386421502082e-01  0.0000000000000000e+00 8.2703911881279935e-01 3.2172534489668841e-01  0.0000000000000000e+00 8.4574567556462521e-01 2.8832393521977212e-01  0.0000000000000000e+00 8.4694741840028120e-01 2.8615181394095007e-01  0.0000000000000000e+00 3.6174283606436997e-01 9.4400499303905727e-01  0.0000000000000000e+00 5.3579333631888426e-01 7.6271708284069006e-01  0.0000000000000000e+00 3.3164604693221789e-01 9.6678174810257866e-01  0.0000000000000000e+00 8.0859288539998952e-01 3.5402719766368523e-01  0.0000000000000000e+00 8.2536690446704808e-01 3.2468109464542250e-01  0.0000000000000000e+00 6.3472850315415372e-02 8.8315073146364931e-01  0.0000000000000000e+00 6.5667909861377149e-01 5.9789636705220994e-01  0.0000000000000000e+00 6.4818784662546136e-01 6.1036730653689497e-01  0.0000000000000000e+00 6.1289075752692546e-01 6.6076244229829606e-01  0.0000000000000000e+00 8.1865016508869159e-01 3.3648826771190510e-01  0.0000000000000000e+00 8.3587533900324285e-01 3.0603538796277546e-01  0.0000000000000000e+00 8.0037873944966442e-01 3.6821780060616166e-01  0.0000000000000000e+00 7.3463514769724569e-01 4.7764257978221586e-01  0.0000000000000000e+00 7.5904562237665241e-01 4.3785833156349113e-01  0.0000000000000000e+00 2.1572052400877565e-02 5.5165555835841096e-01  0.0000000000000000e+00 2.8599351788263068e-02 6.6397578952008052e-01  0.0000000000000000e+00 1.8220570924581795e-02 4.6158300686194920e-01  0.0000000000000000e+00 4.2212327007948906e-02 7.8527133701032570e-01  0.0000000000000000e+00 7.4911699670890841e-02 9.1487020488725623e-01  0.0000000000000000e+00 2.4043709683757731e-02 5.9948772394813776e-01  0.0000000000000000e+00 3.3402344087026337e-01 9.6484479241315102e-01  0.0000000000000000e+00 4.1682225699985170e-01 8.9506636580981880e-01  0.0000000000000000e+00 3.8988675604272194e-01 9.1991898342303480e-01  0.0000000000000000e+00 4.6665992517576244e-01 8.4365916419602449e-01  0.0000000000000000e+00 5.2790591019026889e-01 7.7246028879629269e-01  0.0000000000000000e+00 5.5164241904588773e-01 7.4271502961225522e-01  0.0000000000000000e+00 2.6794350522386007e-01 1.0032540283376463e+00  0.0000000000000000e+00 7.2742418181206681e-01 4.8920359286382581e-01  0.0000000000000000e+00 7.4715221099463558e-01 4.5736946311563370e-01  0.0000000000000000e+00 8.1961517002571849e-01 3.3479423529585917e-01  0.0000000000000000e+00 1.9654325071269152e-01 1.0190162729636307e+00  0.0000000000