<?xml version="1.0"?>
<VTKFile type="UnstructuredGrid"  version="0.1"  >
<UnstructuredGrid>
<Piece  NumberOfPoints="4940" NumberOfCells="9650">
<Points>
<DataArray  type="Float64"  NumberOfComponents="3"  format="ascii">500 250 0  0 250 0  250 500 0  250 0 0  256.8885856082646 499.9050767557906 0  263.7719401218049 499.6203791065173 0  270.6448364229772 499.1461232471188 0  277.5020553257866 498.4826693209355 0  284.3383895508592 497.6305211460281 0  291.1486476865662 496.5903258312597 0  297.9276581259182 495.3628732847843 0  304.6702729675493 493.9490956196674 0  311.3713719748657 492.3500664368026 0  318.0258664141369 490.5670000199653 0  324.6287029687753 488.6012504015818 0  331.1748675330201 486.4543103455647 0  337.6593890460416 484.1278102064655 0  344.0773432429536 481.6235166997244 0  350.4238564271474 478.9433315480048 0  356.694109139292 476.0892900492477 0  362.88333985546 473.0635595140469 0  368.9868485575419 469.8684376402048 0  375.0000003153078 466.5063507640667 0  380.9182288257928 462.9798520074548 0  386.7370398729688 459.2916193419558 0  392.4520147244077 455.444453565817 0  398.0588135356345 451.4412761437442 0  403.5531785622926 447.285127045646 0  408.9309374414144 442.9791624087773 0  414.1880064015299 438.5266521049243 0  419.3203932989752 433.9309773069245 0  424.324200661095 429.1956279150535 0  429.1956286596235 424.3241998957182 0  433.9309780058756 419.3203925397119 0  438.5266527445345 414.1880056671062 0  442.9791630130591 408.9309367076756 0  447.2851276060475 403.5531778422888 0  451.4412766621026 398.0588128303826 0  455.4444540361634 392.4520140460735 0  459.2916197786263 386.7370392045948 0  462.9798524073514 380.9182281752347 0  466.5063511234856 374.9999996927758 0  469.8684379657123 368.9868479560565 0  473.0635598144817 362.8833392617846 0  476.0892903190255 356.6941085676214 0  478.9433317963513 350.4238558609745 0  481.6235169154735 344.0773427117675 0  484.12781039012 337.6593885555221 0  486.4543105028062 331.1748670749914 0  488.601250531677 324.6287025528375 0  490.5670001317469 318.0258660188321 0  492.3500665291326 311.3713716102628 0  493.949095695951 304.6702726271575 0  495.3628733416623 297.9276578347343 0  496.5903258712341 291.1486474470129 0  497.6305211749058 284.3383893426084 0  498.4826693388848 277.502055163614 0  499.1461232580606 270.6448362909296 0  499.6203791109319 263.7719400417897 0  499.9050767571306 256.8885855596534 0  499.9050767559877 243.1114143988867 0  499.6203791069493 236.2280598860241 0  499.1461232485393 229.3551635941651 0  498.4826693235677 222.4979446979962 0  497.6305211491849 215.6616104719064 0  496.5903258357701 208.8513523404629 0  495.3628732906988 202.0723419043604 0  493.9490956264813 195.3297270628552 0  492.3500664487791 188.6286280724281 0  490.5670000344809 181.9741336371959 0  488.6012504175981 175.3712970824318 0  486.4543103623226 168.8251325157939 0  484.1278102222298 162.3406109960628 0  481.6235167152198 155.9226567951971 0  478.9433315621651 149.5761436051346 0  476.0892900516498 143.3058908657982 0  473.063559513628 137.1166601437124 0  469.8684376406648 131.0131514433083 0  466.5063507675389 124.9999996907064 0  462.9798520124137 119.0817711822745 0  459.2916193464549 113.2629601339176 0  455.4444535642773 107.5479852733717 0  451.4412761528674 101.9411864767781 0  447.2851270583545 96.44682145403524 0  442.9791624165781 91.06906256805769 0  438.5266521117469 85.81199360630404 0  433.9309773156125 80.67960671046254 0  429.1956279150353 75.67579933888632 0  424.3241998888952 70.80437133373906 0  419.3203925223282 66.06902197812161 0  414.1880056411937 61.47334723289828 0  408.9309366751728 57.0208369601728 0  403.5531778009394 52.71487236176898 0  398.058812796452 48.55872331295853 0  392.4520140187753 44.55554594490843 0  386.7370391799677 40.70838020528396 0  380.9182281475119 37.02014757560744 0  374.9999996718656 33.49364886444181 0  368.9868479340393 30.13156202237255 0  362.8833392380029 26.93644017348339 0  356.6941085456942 23.91070967062674 0  350.4238558420009 21.0566681953261 0  344.0773426899492 18.37648307566465 0  337.6593885328982 15.87218960140942 0  331.1748670549786 13.54568949032341 0  324.6287025315056 11.39874946165088 0  318.0258660010876 9.432999863235466 0  311.3713716017894 7.649933468721599 0  304.6702726190621 6.050904302234756 0  297.9276578269805 4.637126656823085 0  291.148647441857 3.409674127905504 0  284.3383893425031 2.369478825079682 0  277.502055159398 1.517330660648639 0  270.6448362875833 0.853876741662134 0  263.7719400401456 0.3796208889774277 0  256.8885855592052 0.09492324285704967 0  243.1114143979462 0.09492324403817065 0  236.2280598850882 0.3796208931023841 0  229.3551635938215 0.8538767514891958 0  222.4979446968584 1.517330676558146 0  215.6616104703111 2.369478851036291 0  208.8513523382973 3.409674164591252 0  202.0723419066374 4.637126708856528 0  195.3297270659513 6.050904372824903 0  188.628628074828 7.649933550613184 0  181.9741336377093 9.432999965373938 0  175.3712970793675 11.39874958336037 0  168.8251325057572 13.54568964112298 0  162.340610986655 15.87218978129263 0  155.9226567874317 18.37648328793418 0  149.576143602509 21.05666843898663 0  143.3058908718157 23.91070994551046 0  137.1166601505524 26.93644048291054 0  131.0131514451933 30.13156235831508 0  124.9999996848412 33.49364923584736 0  119.0817711715717 37.0201479941652 0  113.2629601211624 40.70838066187849 0  107.5479852622251 44.55554644345162 0  101.9411864693332 48.55872385260452 0  96.44682143286516 52.71487295812284 0  91.06906254351222 57.02083760363669 0  85.81199358272519 61.4733479087879 0  80.67960667988106 66.06902271253972 0  75.67579930062769 70.80437212218331 0  70.80437129287643 75.67580015310926 0  66.06902193673014 80.67960752263491 0  61.47334718684866 85.81199441168215 0  57.02083692524275 91.0690633672404 0  52.71487232786438 96.44682224262129 0  48.55872328070024 101.941187247437 0  44.55554591578033 107.5479860232332 0  40.7083801742321 113.2629608675606 0  37.02014754791168 119.0817718975441 0  33.49364883372994 125.000000381329 0  30.13156199866361 131.0131521097709 0  26.9364401549829 137.1166607985551 0  23.91070965524918 143.3058914868915 0  21.05666818346614 149.576144185037 0  18.37648306853811 155.9226573275967 0  15.8721895918909 162.3406114925245 0  13.54568948170046 168.8251329701392 0  11.39874945301878 175.3712974960928 0  9.432999857087736 181.9741340206533 0  7.649933466342702 188.6286284076045 0  6.050904301250966 195.3297273853278 0  4.637126656808988 202.0723421730917 0  3.409674127767772 208.8513525589684 0  2.369478824521138 215.6616106615248 0  1.517330660909465 222.4979448382452 0  0.8538767414496533 229.355163714981 0  0.3796208887135322 236.2280599646376 0  0.09492324266324204 243.1114144478261 0  0.0949232442452228 256.8885856095658 0  0.3796208935834784 263.7719401236316 0  0.8538767530323526 270.6448364248016 0  1.517330679476544 277.5020553295092 0  2.369478854618649 284.3383895555228 0  3.409674170191892 291.1486476952655 0  4.6371267162381 297.9276581311522 0  6.050904381420935 304.6702729724059 0  7.649933562385399 311.3713719716595 0  9.43299997979841 318.0258664133013 0  11.3987495994252 324.6287029719946 0  13.54568965885832 331.174867545904 0  15.87218979367188 337.6593890464085 0  18.37648329843151 344.0773432384132 0  21.05666844777872 350.423856417535 0  23.91070995156048 356.6941091410045 0  26.93644048988043 362.8833398632205 0  30.13156235982007 368.9868485575877 0  33.49364924138357 375.0000003247478 0  37.0201480006036 380.9182288389023 0  40.70838066758398 386.7370398875706 0  44.55554644477201 392.4520147396792 0  48.55872386086904 398.0588135419111 0  52.71487295981296 403.5531785693063 0  57.02083760525949 408.9309374584583 0  61.47334790862246 414.1880064170849 0  66.06902271205095 419.320393319588 0  70.80437211216579 424.3242006890749 0  75.67580013809859 429.195628692521 0  80.6796075127923 433.930978054209 0  85.81199439754931 438.5266528008431 0  91.06906334717917 442.9791630582355 0  96.44682221438322 447.2851276501571 0  101.9411872243843 451.441276702356 0  107.5479859945825 455.4444540643537 0  113.2629608446994 459.2916198108319 0  119.0817718768376 462.9798524393601 0  125.0000003647644 466.5063511567065 0  131.0131521012763 469.8684379967393 0  137.1166607840049 473.0635598376539 0  143.3058914748804 476.0892903390826 0  149.5761441732679 478.9433318113714 0  155.9226573130112 481.6235169255377 0  162.3406114779862 484.1278104026658 0  168.8251329570439 486.4543105138039 0  175.3712974805475 488.601250542119 0  181.9741340135204 490.5670001408953 0  188.6286284005059 492.3500665318597 0  195.3297273788229 493.9490956972913 0  202.0723421640089 495.3628733414168 0  208.8513525529672 496.5903258712308 0  215.6616106544547 497.6305211744985 0  222.4979448327038 498.4826693384772 0  229.3551637102845 499.1461232581612 0  236.2280599621369 499.6203791111485 0  243.1114144470173 499.9050767573145 0  155.2373389820306 474.8197567317462 0  25.36256300907667 153.9152755065208 0  432.3709625126712 412.6214396304305 0  6.013151705810699 246.637913163471 0  246.6379131630491 493.986848294322 0  338.6995838441862 22.68244767887072 0  477.3175523131281 338.6995838660569 0  493.9868482700757 246.6379131399102 0  246.6201155078769 6.218451882810491 0  417.6179310263282 72.7156044707053 0  102.2232990934413 445.0100869616822 0  63.66330858966404 92.20354579482142 0  391.3105220491464 50.73522820883105 0  72.79295043967942 418.0702734974704 0  448.290574428537 108.25674339002 0  402.4604651193511 440.7462829841712 0  97.55317348421397 59.11376320116034 0  136.7376477664901 33.58246472647134 0  363.3288394375288 465.6947312928271 0  44.0678766556007 381.0860953771871 0  469.6905266180034 142.3890690100806 0  22.68244791668644 338.6995843487432 0  338.699584349159 477.317552078365 0  173.389488083762 18.6681884918202 0  483.4809734778481 179.7121987795732 0  13.50237455842738 306.4709525540879 0  305.9825168523021 487.24416992
[...]
<PointData  Vectors="f_12"> 
<DataArray  type="Float64"  Name="f_12"  NumberOfComponents="3" format="ascii">0.0000000000000000e+00 3.8381487879714471e-01 9.2417487410674348e-01  0.0000000000000000e+00 6.5654242898166626e-01 5.9790812205110977e-01  0.0000000000000000e+00 1.5299087234595323e-02 2.5394345940997198e-01  0.0000000000000000e+00 8.9727805545537065e-01 1.9223162888744533e-01  0.0000000000000000e+00 1.5304159890402409e-02 2.5157928451923367e-01  0.0000000000000000e+00 1.5307703649691405e-02 2.5015245581616347e-01  0.0000000000000000e+00 1.5309723214779563e-02 2.4936667135376067e-01  0.0000000000000000e+00 1.5309866415187752e-02 2.4939194625451480e-01  0.0000000000000000e+00 1.5307800784679845e-02 2.5012776107036999e-01  0.0000000000000000e+00 1.5304066317859692e-02 2.5159011635120015e-01  0.0000000000000000e+00 1.5299053090329291e-02 2.5379015243522030e-01  0.0000000000000000e+00 1.5294014398326854e-02 2.5671925689032099e-01  0.0000000000000000e+00 1.5289856483886028e-02 2.6041522787526084e-01  0.0000000000000000e+00 1.5288235040581695e-02 2.6493800840538945e-01  0.0000000000000000e+00 1.5291036080557393e-02 2.7044388313470130e-01  0.0000000000000000e+00 1.5300286148236092e-02 2.7642240689703995e-01  0.0000000000000000e+00 1.5319580364959702e-02 2.8365873226442168e-01  0.0000000000000000e+00 1.5350219354877065e-02 2.9135863514967597e-01  0.0000000000000000e+00 1.5395184589322430e-02 2.9981374107909331e-01  0.0000000000000000e+00 1.5455717901815812e-02 3.0887749240745083e-01  0.0000000000000000e+00 1.5534016299742933e-02 3.1844194628131217e-01  0.0000000000000000e+00 1.5634605164619366e-02 3.2872537977122790e-01  0.0000000000000000e+00 1.5759219021358999e-02 3.3966198147141874e-01  0.0000000000000000e+00 1.5910871999726791e-02 3.5128263988669833e-01  0.0000000000000000e+00 1.6098569557614555e-02 3.6403034153288627e-01  0.0000000000000000e+00 1.6337728127984286e-02 3.7836686350074178e-01  0.0000000000000000e+00 1.6639318383175353e-02 3.9457246640304539e-01  0.0000000000000000e+00 1.7013672693288025e-02 4.1239634969572808e-01  0.0000000000000000e+00 1.7478187816963035e-02 4.3199365576517917e-01  0.0000000000000000e+00 1.8047597845545944e-02 4.5335064895588578e-01  0.0000000000000000e+00 1.8721287111218843e-02 4.7553032267794665e-01  0.0000000000000000e+00 1.9510031859781111e-02 4.9854553630771548e-01  0.0000000000000000e+00 2.0432926533525412e-02 5.2232569702564291e-01  0.0000000000000000e+00 2.1527320366459556e-02 5.4723216005776021e-01  0.0000000000000000e+00 2.2877685608323029e-02 5.7430507638869266e-01  0.0000000000000000e+00 2.4558639400252776e-02 6.0364111608877535e-01  0.0000000000000000e+00 2.6659819435659635e-02 6.3516491951316034e-01  0.0000000000000000e+00 2.9286134540209629e-02 6.6861573720564083e-01  0.0000000000000000e+00 3.2495053002997570e-02 7.0278695839820882e-01  0.0000000000000000e+00 3.6284674452161693e-02 7.3629929223158008e-01  0.0000000000000000e+00 4.0756481036999831e-02 7.6900900201694600e-01  0.0000000000000000e+00 4.6184783428670322e-02 8.0171526462999676e-01  0.0000000000000000e+00 5.2867489477510271e-02 8.3449355586031360e-01  0.0000000000000000e+00 6.0978133570577499e-02 8.6652389620879477e-01  0.0000000000000000e+00 7.0653956770495616e-02 8.9684783510520349e-01  0.0000000000000000e+00 8.1743287469174808e-02 9.2421082896524409e-01  0.0000000000000000e+00 9.4063116518844830e-02 9.4789897106001353e-01  0.0000000000000000e+00 1.0761452065831979e-01 9.6808049994060064e-01  0.0000000000000000e+00 1.2296516140583488e-01 9.8515883778376179e-01  0.0000000000000000e+00 1.4007366591319684e-01 9.9885868642720588e-01  0.0000000000000000e+00 1.5883940820904446e-01 1.0087306251887742e+00  0.0000000000000000e+00 1.7868761817384848e-01 1.0145325893520356e+00  0.0000000000000000e+00 1.9918155210833630e-01 1.0165241168928647e+00  0.0000000000000000e+00 2.2038369607117347e-01 1.0149919135673675e+00  0.0000000000000000e+00 2.4249090078593383e-01 1.0101515915355455e+00  0.0000000000000000e+00 2.6560647728143066e-01 1.0020632675678343e+00  0.0000000000000000e+00 2.8955737253806008e-01 9.9080522187862274e-01  0.0000000000000000e+00 3.1362696501468035e-01 9.7695838985112993e-01  0.0000000000000000e+00 3.3725252179146537e-01 9.6107619868202199e-01  0.0000000000000000e+00 3.6007220250846805e-01 9.4405909028784296e-01  0.0000000000000000e+00 4.0758763198423820e-01 9.0275658415469273e-01  0.0000000000000000e+00 4.3109643272828935e-01 8.8003862422922763e-01  0.0000000000000000e+00 4.5352120437474674e-01 8.5699992055764762e-01  0.0000000000000000e+00 4.7531956862614805e-01 8.3337112825775916e-01  0.0000000000000000e+00 4.9659481888528184e-01 8.0928506770574271e-01  0.0000000000000000e+00 5.1775440827989494e-01 7.8429131300102151e-01  0.0000000000000000e+00 5.3843414222286201e-01 7.5894487996766369e-01  0.0000000000000000e+00 5.5817740022377982e-01 7.3390390701047670e-01  0.0000000000000000e+00 5.7686914008886603e-01 7.0947770139460475e-01  0.0000000000000000e+00 5.9475613085381163e-01 6.8546548884212199e-01  0.0000000000000000e+00 6.1226562498941828e-01 6.6136244034394120e-01  0.0000000000000000e+00 6.2930809285466982e-01 6.3736019779327613e-01  0.0000000000000000e+00 6.4568914365486296e-01 6.1379004891312638e-01  0.0000000000000000e+00 6.6101335406173189e-01 5.9129816026548621e-01  0.0000000000000000e+00 6.7538121175427779e-01 5.6983275394939426e-01  0.0000000000000000e+00 6.8911273595659350e-01 5.4898266882331759e-01  0.0000000000000000e+00 7.0248904791134337e-01 5.2835859177739963e-01  0.0000000000000000e+00 7.1543434032607278e-01 5.0810779941451856e-01  0.0000000000000000e+00 7.2767681144312690e-01 4.8869333426927947e-01  0.0000000000000000e+00 7.3904652307735175e-01 4.7043524127276237e-01  0.0000000000000000e+00 7.4967233276980527e-01 4.5317340303789233e-01  0.0000000000000000e+00 7.5970117944302962e-01 4.3670501973037867e-01  0.0000000000000000e+00 7.6948177259680850e-01 4.2048437007899220e-01  0.0000000000000000e+00 7.7890119434599725e-01 4.0471008144897574e-01  0.0000000000000000e+00 7.8781726280319853e-01 3.8963997443103326e-01  0.0000000000000000e+00 7.9604213458820328e-01 3.7561673584260302e-01  0.0000000000000000e+00 8.0357970764390751e-01 3.6266138068278897e-01  0.0000000000000000e+00 8.1061899705026241e-01 3.5047256831467072e-01  0.0000000000000000e+00 8.1736829099817987e-01 3.3870402040219316e-01  0.0000000000000000e+00 8.2393807496070814e-01 3.2717191372937099e-01  0.0000000000000000e+00 8.3025619245571791e-01 3.1600774065592468e-01  0.0000000000000000e+00 8.3618536776111207e-01 3.0546318338838735e-01  0.0000000000000000e+00 8.4163277039847195e-01 2.9571485602797315e-01  0.0000000000000000e+00 8.4653693416653297e-01 2.8688767008109611e-01  0.0000000000000000e+00 8.5097031236840492e-01 2.7886462423063629e-01  0.0000000000000000e+00 8.5519275567589237e-01 2.7118522862851169e-01  0.0000000000000000e+00 8.5924848084351546e-01 2.6377479414854393e-01  0.0000000000000000e+00 8.6308835258052641e-01 2.5672536197978879e-01  0.0000000000000000e+00 8.6684136965331804e-01 2.4980357349308743e-01  0.0000000000000000e+00 8.7043022187256125e-01 2.4315537628426290e-01  0.0000000000000000e+00 8.7362586063540837e-01 2.3720645288686421e-01  0.0000000000000000e+00 8.7652840892944850e-01 2.3177894378702976e-01  0.0000000000000000e+00 8.7910587803012852e-01 2.2693873440078430e-01  0.0000000000000000e+00 8.8142050021080820e-01 2.2257579413422354e-01  0.0000000000000000e+00 8.8349659277202841e-01 2.1864836098245441e-01  0.0000000000000000e+00 8.8539297540544160e-01 2.1504955263330452e-01  0.0000000000000000e+00 8.8712821350004867e-01 2.1174689233966965e-01  0.0000000000000000e+00 8.8871909146086103e-01 2.0871083563081294e-01  0.0000000000000000e+00 8.9020791375482511e-01 2.0586257898230245e-01  0.0000000000000000e+00 8.9159265797267206e-01 2.0320733045472256e-01  0.0000000000000000e+00 8.9283641873730624e-01 2.0081711199615743e-01  0.0000000000000000e+00 8.9393077635670826e-01 1.9870897407709018e-01  0.0000000000000000e+00 8.9486735634165981e-01 1.9690079400725630e-01  0.0000000000000000e+00 8.9569824228593609e-01 1.9529422330101706e-01  0.0000000000000000e+00 8.9636711284946280e-01 1.9399885886823220e-01  0.0000000000000000e+00 8.9690464333596487e-01 1.9295686817756391e-01  0.0000000000000000e+00 8.9744445104649495e-01 1.9190706189430978e-01  0.0000000000000000e+00 8.9781886090078999e-01 1.9118354048226827e-01  0.0000000000000000e+00 8.9764496791941950e-01 1.9151853150611584e-01  0.0000000000000000e+00 8.9750115788885043e-01 1.9179788715488591e-01  0.0000000000000000e+00 8.9724937961402895e-01 1.9228709549185435e-01  0.0000000000000000e+00 8.9684202207637764e-01 1.9307746098869946e-01  0.0000000000000000e+00 8.9628192985455357e-01 1.9416270067485603e-01  0.0000000000000000e+00 8.9563118915589246e-01 1.9542273130358581e-01  0.0000000000000000e+00 8.9484435785240835e-01 1.9694375857154148e-01  0.0000000000000000e+00 8.9410154717480150e-01 1.9838000942801731e-01  0.0000000000000000e+00 8.9300097867252726e-01 2.0049945152143250e-01  0.0000000000000000e+00 8.9186843131597793e-01 2.0267668196290672e-01  0.0000000000000000e+00 8.9065212202269661e-01 2.0501078268519465e-01  0.0000000000000000e+00 8.8940810873850618e-01 2.0739397880607938e-01  0.0000000000000000e+00 8.8805007120654800e-01 2.0998940109834280e-01  0.0000000000000000e+00 8.8654397691180986e-01 2.1286033102191013e-01  0.0000000000000000e+00 8.8499247176901497e-01 2.1581117545560635e-01  0.0000000000000000e+00 8.8335036504548237e-01 2.1892678577382091e-01  0.0000000000000000e+00 8.8159220218839773e-01 2.2225345270475316e-01  0.0000000000000000e+00 8.7967833322140476e-01 2.2586393148771505e-01  0.0000000000000000e+00 8.7755597076324088e-01 2.2985409807715759e-01  0.0000000000000000e+00 8.7521946548032226e-01 2.3423194322967567e-01  0.0000000000000000e+00 8.7269834131528201e-01 2.3893871172778344e-01  0.0000000000000000e+00 8.6998181871682256e-01 2.4399120922455653e-01  0.0000000000000000e+00 8.6708180897064291e-01 2.4936430726467090e-01  0.0000000000000000e+00 8.6404988667242832e-01 2.5496029610022281e-01  0.0000000000000000e+00 8.6092768748112758e-01 2.6070104817761380e-01  0.0000000000000000e+00 8.5775842772718980e-01 2.6650668642941344e-01  0.0000000000000000e+00 8.5454040757289751e-01 2.7237990446873334e-01  0.0000000000000000e+00 8.5124791862383475e-01 2.7836678485924576e-01  0.0000000000000000e+00 8.4781887923289423e-01 2.8457814436138601e-01  0.0000000000000000e+00 8.4419158847904807e-01 2.9112229194871525e-01  0.0000000000000000e+00 8.4026670737798437e-01 2.9817281450339850e-01  0.0000000000000000e+00 8.3599593652412152e-01 3.0580880795999477e-01  0.0000000000000000e+00 8.3135960321567581e-01 3.1405836042214602e-01  0.0000000000000000e+00 8.2647878795046992e-01 3.2269887332545028e-01  0.0000000000000000e+00 8.2145350984434751e-01 3.3154987665556684e-01  0.0000000000000000e+00 8.1637782795356661e-01 3.4044411747520292e-01  0.0000000000000000e+00 8.1126149897591915e-01 3.4936353709663631e-01  0.0000000000000000e+00 8.0605331340466380e-01 3.5839667539786996e-01  0.0000000000000000e+00 8.0048479347211099e-01 3.6800031166250352e-01  0.0000000000000000e+00 7.9453855867653578e-01 3.7819689465590489e-01  0.0000000000000000e+00 7.8818975125449275e-01 3.8901590764584437e-01  0.0000000000000000e+00 7.8127047834645214e-01 4.0072627450972320e-01  0.0000000000000000e+00 7.7390870700104553e-01 4.1309711097472684e-01  0.0000000000000000e+00 7.6631102282645369e-01 4.2576719155152992e-01  0.0000000000000000e+00 7.5877805392598274e-01 4.3823599127261276e-01  0.0000000000000000e+00 7.5084413990046961e-01 4.5126398652174859e-01  0.0000000000000000e+00 7.4269396489257256e-01 4.6453734057235269e-01  0.0000000000000000e+00 7.3392259328524778e-01 4.7869544224811200e-01  0.0000000000000000e+00 7.2447187217647158e-01 4.9380720620973872e-01  0.0000000000000000e+00 7.1420120014669841e-01 5.1005323540963377e-01  0.0000000000000000e+00 7.0336266276296233e-01 5.2700617663866767e-01  0.0000000000000000e+00 6.9224867250741917e-01 5.4417973228399930e-01  0.0000000000000000e+00 6.8092998647879177e-01 5.6145093240655664e-01  0.0000000000000000e+00 6.6915731836924186e-01 5.7917950710840382e-01  0.0000000000000000e+00 6.4286436693664806e-01 6.1789320369502954e-01  0.0000000000000000e+00 6.2822429410872727e-01 6.3890658839993142e-01  0.0000000000000000e+00 6.1294216676636326e-01 6.6042678635685503e-01  0.0000000000000000e+00 5.9728113505966374e-01 6.8202621208871395e-01  0.0000000000000000e+00 5.8115764803791925e-01 7.0378057198662525e-01  0.0000000000000000e+00 5.6413291068434279e-01 7.2620029151911003e-01  0.0000000000000000e+00 5.4585801489767727e-01 7.4962553658456010e-01  0.0000000000000000e+00 5.2635895362075091e-01 7.7385884264573990e-01  0.0000000000000000e+00 5.0605256196844306e-01 7.9823781974437491e-01  0.0000000000000000e+00 4.8529026151302640e-01 8.2221870825786225e-01  0.0000000000000000e+00 4.6402141420614429e-01 8.4577121736193572e-01  0.0000000000000000e+00 4.4184342045713038e-01 8.6915498994669083e-01  0.0000000000000000e+00 4.1851052250789456e-01 8.9240547485596533e-01  0.0000000000000000e+00 3.9419027849565891e-01 9.1506410949940198e-01  0.0000000000000000e+00 3.6959055506484517e-01 9.3623017786311347e-01  0.0000000000000000e+00 3.4486349215154527e-01 9.5557223048692752e-01  0.0000000000000000e+00 3.1977142541610243e-01 9.7305901225900715e-01  0.0000000000000000e+00 2.9422657628193910e-01 9.8832502234225772e-01  0.0000000000000000e+00 2.6828533458099274e-01 1.0009954379896291e+00  0.0000000000000000e+00 2.4276373360521653e-01 1.0101209946810963e+00  0.0000000000000000e+00 2.1808510816703666e-01 1.0153714517739389e+00  0.0000000000000000e+00 1.9427717811222323e-01 1.0164524969103412e+00  0.0000000000000000e+00 1.7115562261061740e-01 1.0129058085464380e+00  0.0000000000000000e+00 1.4895395104787493e-01 1.0042191483614606e+00  0.0000000000000000e+00 1.2840712253593869e-01 9.9016280935849554e-01  0.0000000000000000e+00 1.0999634473329895e-01 9.7112392002581727e-01  0.0000000000000000e+00 9.3596112831584782e-02 9.4725216646056964e-01  0.0000000000000000e+00 7.9126369459143850e-02 9.1844856202246106e-01  0.0000000000000000e+00 6.6436926637093899e-02 8.8465587494913112e-01  0.0000000000000000e+00 5.5826088441898868e-02 8.4716177186368125e-01  0.0000000000000000e+00 4.7268145107645029e-02 8.0768042976375543e-01  0.0000000000000000e+00 4.0478996601212701e-02 7.6730689913996963e-01  0.0000000000000000e+00 3.5067015355832891e-02 7.2631842342967523e-01  0.0000000000000000e+00 3.0719803735301785e-02 6.8474616269110311e-01  0.0000000000000000e+00 2.7263134808267971e-02 6.4342688113531077e-01  0.0000000000000000e+00 2.4596792435014437e-02 6.0425200471517138e-01  0.0000000000000000e+00 2.2554837572756437e-02 5.6815295949691047e-01  0.0000000000000000e+00 2.0967930260533580e-02 5.3481870568962586e-01  0.0000000000000000e+00 1.9715890575535674e-02 5.0401109178605963e-01  0.0000000000000000e+00 1.8708621272642747e-02 4.7502860512099487e-01  0.0000000000000000e+00 1.7893320116923787e-02 4.4759259848474514e-01  0.0000000000000000e+00 1.7243678574239710e-02 4.2223442705340186e-01  0.0000000000000000e+00 1.6741430998524424e-02 3.9932794727284027e-01  0.0000000000000000e+00 1.6357517818634596e-02 3.7934711352311340e-01  0.0000000000000000e+00 1.6069418393040213e-02 3.6181881227562357e-01  0.0000000000000000e+00 1.5848595815746915e-02 3.4644126691844151e-01  0.0000000000000000e+00 1.5680194815593143e-02 3.3272525701896621e-01  0.0000000000000000e+00 1.5551225852355034e-02 3.2022133465836755e-01  0.0000000000000000e+00 1.5457412252247012e-02 3.0880103069824077e-01  0.0000000000000000e+00 1.5387612691383260e-02 2.9830198131194569e-01  0.0000000000000000e+00 1.5340044876518015e-02 2.8865405880069395e-01  0.0000000000000000e+00 1.5310636131823664e-02 2.8015108798519589e-01  0.0000000000000000e+00 1.5296031328556538e-02 2.7281093061237832e-01  0.0000000000000000e+00 1.5289713634516495e-02 2.6655556121139934e-01  0.0000000000000000e+00 1.5290488855052766e-02 2.6137556540577817e-01  0.0000000000000000e+00 1.5293931897527872e-02 2.5726285253532244e-01  0.0000000000000000e+00 1.7008568606284434e-02 4.1186798684821974e-01  0.0000000000000000e+00 7.9162721526584412e-01 3.8316455724418452e-01  0.0000000000000000e+00 2.2361252100474412e-02 5.6445908615265084e-01  0.0000000000000000e+00 6.6199803551931735e-01 5.8984596245033905e-01  0.0000000000000000e+00 1.5294674958333435e-02 2.5703088710031824e-01  0.0000000000000000e+00 8.7953960675290488e-01 2.2611561502582977e-01  0.0000000000000000e+00 1.0137342846135389e-01 9.5948195882394516e-01  0.0000000000000000e+00 3.9608618863049999e-01 9.1346303818354280e-01  0.0000000000000000e+00 8.9654436783821745e-01 1.9364177284170883e-01  0.0000000000000000e+00 8.2018069873625010e-01 3.3377494003672070e-01  0.0000000000000000e+00 3.3074792176943549e-02 7.0836683661148137e-01  0.0000000000000000e+00 8.4523284557475187e-01 2.8924251853179828e-01  0.0000000000000000e+00 8.4870298157030011e-01 2.8296991977555458e-01  0.0000000000000000e+00 8.5960977465510888e-02 9.3313668140002171e-01  0.0000000000000000e+00 7.6437656161542378e-01 4.2897105647083988e-01  0.0000000000000000e+00 1.7263887601788763e-02 4.2326905452309549e-01  0.0000000000000000e+00 8.6790679698269380e-01 2.4783260481989147e-01  0.0000000000000000e+00 8.8348789368208125e-01 2.1865892989870386e-01  0.0000000000000000e+00 1.5603699169417666e-02 3.2569709143490000e-01  0.0000000000000000e+00 2.2881018326467994e-01 1.0135147963493494e+00  0.0000000000000000e+00 6.9602483939347182e-01 5.3836221522681882e-01  0.0000000000000000e+00 4.0612324908541281e-01 9.0420313532967811e-01  0.0000000000000000e+00 1.5340275677563341e-02 2.8892538348884456e-01  0.0000000000000000e+00 8.9151239893691159e-01 2.0335147310632645e-01  0.0000000000000000e+00 6.0549684871630860e-01 6.7075027052311242e-01  0.0000000000000000e+00 5.1527705232511334e-01 7.8727601626228583e-01  0.0000000000000000e+00 1.5291090670024182e-02 2.5980885315652741e-01  0.0000000000000000e+00 1.5511610472636942e-02 3.1568681158796325e-01  0.0000000000000000e+00 7.4592617247609605e-01 4.5928388308109841e-01  0.0000000000000000e+00 8.9015166293276982e-01 2.0596206927549424e-01  0.0000000000000000e+00 2.1049139578314133e-01 1.0161346024637172e+00  0.0000000000000000e+00 3.7907469558034840e-02 7.4891998184213582e-01  0.0000000000000000e+00 8.9580343980072241e-01 1.9507944079002285e-01  0.0000000000000000e+00 5.2984739782782186e-01 7.6957346729855391e-01  0.0000000000000000e+00 5.8844779494451860e-01 6.9400599028708454e-01  0.0000000000000000e+00 1.5305818510336305e-02 2.5114551897313458e-01  0.0000000000000000e+00 8.6424473323027495e-01 2.5459176569373387e-01  0.0000000000000000e+00 8.1814516184134478e-01 3.3734989631068157e-01  0.0000000000000000e+00 1.5305442826697376e-02 2.7774733908411164e-01  0.0000000000000000e+00 2.0398285030058340e-02 5.2153120515048057e-01  0.0000000000000000e+00 7.0654091402602126e-01 5.2205715078081638e-01  0.0000000000000000e+00 8.9441205499811816e-01 1.9776880778026351e-01  0.0000000000000000e+00 2.9967306173506059e-01 9.8525456647650611e-01  0.0000000000000000e+00 1.6257233488409500e-02 3.7371237534246871e-01  0.0000000000000000e+00 1.5013044289640146e-01 1.0047681284855283e+00  0.0000000000000000e+00 8.9687190327813859e-01 1.9300875628968886e-01  0.0000000000000000e+00 8.8556447122826509e-01 2.1471663191669393e-01  0.0000000000000000e+00 4.6515263343122970e-01 8.4457094667851695e-01  0.0000000000000000e+00 7.9969793459036531e-01 3.6934334097686833e-01  0.0000000000000000e+00 1.5969988341364191e-02 3.5512745327015577e-01  0.0000000000000000e+00 2.8168057546474036e-02 6.5525597707161198e-01  0.0000000000000000e+00 1.3758550029464364e-01 9.9732557023755941e-01  0.0000000000000000e+00 8.7558014946472495e-01 2.3355003583287001e-01  0.0000000000000000e+00 3.0530185884370081e-01 9.8207854083170820e-01  0.0000000000000000e+00 7.6920013617171945e-01 4.2095741880174470e-01  0.0000000000000000e+00 5.7217192754020270e-02 8.5252658686570038e-01  0.0000000000