<?xml version="1.0"?>
<VTKFile type="UnstructuredGrid"  version="0.1"  >
<UnstructuredGrid>
<Piece  NumberOfPoints="4940" NumberOfCells="9650">
<Points>
<DataArray  type="Float64"  NumberOfComponents="3"  format="ascii">500 250 0  0 250 0  250 500 0  250 0 0  256.8885856082646 499.9050767557906 0  263.7719401218049 499.6203791065173 0  270.6448364229772 499.1461232471188 0  277.5020553257866 498.4826693209355 0  284.3383895508592 497.6305211460281 0  291.1486476865662 496.5903258312597 0  297.9276581259182 495.3628732847843 0  304.6702729675493 493.9490956196674 0  311.3713719748657 492.3500664368026 0  318.0258664141369 490.5670000199653 0  324.6287029687753 488.6012504015818 0  331.1748675330201 486.4543103455647 0  337.6593890460416 484.1278102064655 0  344.0773432429536 481.6235166997244 0  350.4238564271474 478.9433315480048 0  356.694109139292 476.0892900492477 0  362.88333985546 473.0635595140469 0  368.9868485575419 469.8684376402048 0  375.0000003153078 466.5063507640667 0  380.9182288257928 462.9798520074548 0  386.7370398729688 459.2916193419558 0  392.4520147244077 455.444453565817 0  398.0588135356345 451.4412761437442 0  403.5531785622926 447.285127045646 0  408.9309374414144 442.9791624087773 0  414.1880064015299 438.5266521049243 0  419.3203932989752 433.9309773069245 0  424.324200661095 429.1956279150535 0  429.1956286596235 424.3241998957182 0  433.9309780058756 419.3203925397119 0  438.5266527445345 414.1880056671062 0  442.9791630130591 408.9309367076756 0  447.2851276060475 403.5531778422888 0  451.4412766621026 398.0588128303826 0  455.4444540361634 392.4520140460735 0  459.2916197786263 386.7370392045948 0  462.9798524073514 380.9182281752347 0  466.5063511234856 374.9999996927758 0  469.8684379657123 368.9868479560565 0  473.0635598144817 362.8833392617846 0  476.0892903190255 356.6941085676214 0  478.9433317963513 350.4238558609745 0  481.6235169154735 344.0773427117675 0  484.12781039012 337.6593885555221 0  486.4543105028062 331.1748670749914 0  488.601250531677 324.6287025528375 0  490.5670001317469 318.0258660188321 0  492.3500665291326 311.3713716102628 0  493.949095695951 304.6702726271575 0  495.3628733416623 297.9276578347343 0  496.5903258712341 291.1486474470129 0  497.6305211749058 284.3383893426084 0  498.4826693388848 277.502055163614 0  499.1461232580606 270.6448362909296 0  499.6203791109319 263.7719400417897 0  499.9050767571306 256.8885855596534 0  499.9050767559877 243.1114143988867 0  499.6203791069493 236.2280598860241 0  499.1461232485393 229.3551635941651 0  498.4826693235677 222.4979446979962 0  497.6305211491849 215.6616104719064 0  496.5903258357701 208.8513523404629 0  495.3628732906988 202.0723419043604 0  493.9490956264813 195.3297270628552 0  492.3500664487791 188.6286280724281 0  490.5670000344809 181.9741336371959 0  488.6012504175981 175.3712970824318 0  486.4543103623226 168.8251325157939 0  484.1278102222298 162.3406109960628 0  481.6235167152198 155.9226567951971 0  478.9433315621651 149.5761436051346 0  476.0892900516498 143.3058908657982 0  473.063559513628 137.1166601437124 0  469.8684376406648 131.0131514433083 0  466.5063507675389 124.9999996907064 0  462.9798520124137 119.0817711822745 0  459.2916193464549 113.2629601339176 0  455.4444535642773 107.5479852733717 0  451.4412761528674 101.9411864767781 0  447.2851270583545 96.44682145403524 0  442.9791624165781 91.06906256805769 0  438.5266521117469 85.81199360630404 0  433.9309773156125 80.67960671046254 0  429.1956279150353 75.67579933888632 0  424.3241998888952 70.80437133373906 0  419.3203925223282 66.06902197812161 0  414.1880056411937 61.47334723289828 0  408.9309366751728 57.0208369601728 0  403.5531778009394 52.71487236176898 0  398.058812796452 48.55872331295853 0  392.4520140187753 44.55554594490843 0  386.7370391799677 40.70838020528396 0  380.9182281475119 37.02014757560744 0  374.9999996718656 33.49364886444181 0  368.9868479340393 30.13156202237255 0  362.8833392380029 26.93644017348339 0  356.6941085456942 23.91070967062674 0  350.4238558420009 21.0566681953261 0  344.0773426899492 18.37648307566465 0  337.6593885328982 15.87218960140942 0  331.1748670549786 13.54568949032341 0  324.6287025315056 11.39874946165088 0  318.0258660010876 9.432999863235466 0  311.3713716017894 7.649933468721599 0  304.6702726190621 6.050904302234756 0  297.9276578269805 4.637126656823085 0  291.148647441857 3.409674127905504 0  284.3383893425031 2.369478825079682 0  277.502055159398 1.517330660648639 0  270.6448362875833 0.853876741662134 0  263.7719400401456 0.3796208889774277 0  256.8885855592052 0.09492324285704967 0  243.1114143979462 0.09492324403817065 0  236.2280598850882 0.3796208931023841 0  229.3551635938215 0.8538767514891958 0  222.4979446968584 1.517330676558146 0  215.6616104703111 2.369478851036291 0  208.8513523382973 3.409674164591252 0  202.0723419066374 4.637126708856528 0  195.3297270659513 6.050904372824903 0  188.628628074828 7.649933550613184 0  181.9741336377093 9.432999965373938 0  175.3712970793675 11.39874958336037 0  168.8251325057572 13.54568964112298 0  162.340610986655 15.87218978129263 0  155.9226567874317 18.37648328793418 0  149.576143602509 21.05666843898663 0  143.3058908718157 23.91070994551046 0  137.1166601505524 26.93644048291054 0  131.0131514451933 30.13156235831508 0  124.9999996848412 33.49364923584736 0  119.0817711715717 37.0201479941652 0  113.2629601211624 40.70838066187849 0  107.5479852622251 44.55554644345162 0  101.9411864693332 48.55872385260452 0  96.44682143286516 52.71487295812284 0  91.06906254351222 57.02083760363669 0  85.81199358272519 61.4733479087879 0  80.67960667988106 66.06902271253972 0  75.67579930062769 70.80437212218331 0  70.80437129287643 75.67580015310926 0  66.06902193673014 80.67960752263491 0  61.47334718684866 85.81199441168215 0  57.02083692524275 91.0690633672404 0  52.71487232786438 96.44682224262129 0  48.55872328070024 101.941187247437 0  44.55554591578033 107.5479860232332 0  40.7083801742321 113.2629608675606 0  37.02014754791168 119.0817718975441 0  33.49364883372994 125.000000381329 0  30.13156199866361 131.0131521097709 0  26.9364401549829 137.1166607985551 0  23.91070965524918 143.3058914868915 0  21.05666818346614 149.576144185037 0  18.37648306853811 155.9226573275967 0  15.8721895918909 162.3406114925245 0  13.54568948170046 168.8251329701392 0  11.39874945301878 175.3712974960928 0  9.432999857087736 181.9741340206533 0  7.649933466342702 188.6286284076045 0  6.050904301250966 195.3297273853278 0  4.637126656808988 202.0723421730917 0  3.409674127767772 208.8513525589684 0  2.369478824521138 215.6616106615248 0  1.517330660909465 222.4979448382452 0  0.8538767414496533 229.355163714981 0  0.3796208887135322 236.2280599646376 0  0.09492324266324204 243.1114144478261 0  0.0949232442452228 256.8885856095658 0  0.3796208935834784 263.7719401236316 0  0.8538767530323526 270.6448364248016 0  1.517330679476544 277.5020553295092 0  2.369478854618649 284.3383895555228 0  3.409674170191892 291.1486476952655 0  4.6371267162381 297.9276581311522 0  6.050904381420935 304.6702729724059 0  7.649933562385399 311.3713719716595 0  9.43299997979841 318.0258664133013 0  11.3987495994252 324.6287029719946 0  13.54568965885832 331.174867545904 0  15.87218979367188 337.6593890464085 0  18.37648329843151 344.0773432384132 0  21.05666844777872 350.423856417535 0  23.91070995156048 356.6941091410045 0  26.93644048988043 362.8833398632205 0  30.13156235982007 368.9868485575877 0  33.49364924138357 375.0000003247478 0  37.0201480006036 380.9182288389023 0  40.70838066758398 386.7370398875706 0  44.55554644477201 392.4520147396792 0  48.55872386086904 398.0588135419111 0  52.71487295981296 403.5531785693063 0  57.02083760525949 408.9309374584583 0  61.47334790862246 414.1880064170849 0  66.06902271205095 419.320393319588 0  70.80437211216579 424.3242006890749 0  75.67580013809859 429.195628692521 0  80.6796075127923 433.930978054209 0  85.81199439754931 438.5266528008431 0  91.06906334717917 442.9791630582355 0  96.44682221438322 447.2851276501571 0  101.9411872243843 451.441276702356 0  107.5479859945825 455.4444540643537 0  113.2629608446994 459.2916198108319 0  119.0817718768376 462.9798524393601 0  125.0000003647644 466.5063511567065 0  131.0131521012763 469.8684379967393 0  137.1166607840049 473.0635598376539 0  143.3058914748804 476.0892903390826 0  149.5761441732679 478.9433318113714 0  155.9226573130112 481.6235169255377 0  162.3406114779862 484.1278104026658 0  168.8251329570439 486.4543105138039 0  175.3712974805475 488.601250542119 0  181.9741340135204 490.5670001408953 0  188.6286284005059 492.3500665318597 0  195.3297273788229 493.9490956972913 0  202.0723421640089 495.3628733414168 0  208.8513525529672 496.5903258712308 0  215.6616106544547 497.6305211744985 0  222.4979448327038 498.4826693384772 0  229.3551637102845 499.1461232581612 0  236.2280599621369 499.6203791111485 0  243.1114144470173 499.9050767573145 0  155.2373389820306 474.8197567317462 0  25.36256300907667 153.9152755065208 0  432.3709625126712 412.6214396304305 0  6.013151705810699 246.637913163471 0  246.6379131630491 493.986848294322 0  338.6995838441862 22.68244767887072 0  477.3175523131281 338.6995838660569 0  493.9868482700757 246.6379131399102 0  246.6201155078769 6.218451882810491 0  417.6179310263282 72.7156044707053 0  102.2232990934413 445.0100869616822 0  63.66330858966404 92.20354579482142 0  391.3105220491464 50.73522820883105 0  72.79295043967942 418.0702734974704 0  448.290574428537 108.25674339002 0  402.4604651193511 440.7462829841712 0  97.55317348421397 59.11376320116034 0  136.7376477664901 33.58246472647134 0  363.3288394375288 465.6947312928271 0  44.0678766556007 381.0860953771871 0  469.6905266180034 142.3890690100806 0  22.68244791668644 338.6995843487432 0  338.699584349159 477.317552078365 0  173.389488083762 18.6681884918202 0  483.4809734778481 179.7121987795732 0  13.50237455842738 306.4709525540879 0  305.9825168523021 487.24416992
[...]
<PointData  Vectors="f_12"> 
<DataArray  type="Float64"  Name="f_12"  NumberOfComponents="3" format="ascii">0.0000000000000000e+00 3.4194448974098335e-01 9.5767559793721702e-01  0.0000000000000000e+00 6.2863571483855440e-01 6.3832438243761469e-01  0.0000000000000000e+00 1.5283580226120469e-02 2.7043547294646503e-01  0.0000000000000000e+00 8.9329042746108323e-01 1.9994939961929176e-01  0.0000000000000000e+00 1.5281419786604121e-02 2.6803760215448019e-01  0.0000000000000000e+00 1.5280538678139362e-02 2.6652651574553987e-01  0.0000000000000000e+00 1.5280204267110721e-02 2.6572296031453063e-01  0.0000000000000000e+00 1.5280239656215304e-02 2.6571432983075383e-01  0.0000000000000000e+00 1.5280432467260839e-02 2.6644041136116348e-01  0.0000000000000000e+00 1.5281199511237636e-02 2.6790791500566108e-01  0.0000000000000000e+00 1.5282981626933902e-02 2.7013052607613847e-01  0.0000000000000000e+00 1.5286829325567609e-02 2.7310906524098677e-01  0.0000000000000000e+00 1.5293763410770713e-02 2.7686491060019330e-01  0.0000000000000000e+00 1.5305577004917444e-02 2.8142878703575808e-01  0.0000000000000000e+00 1.5323808366192555e-02 2.8685434420516559e-01  0.0000000000000000e+00 1.5349796342312604e-02 2.9282172100774240e-01  0.0000000000000000e+00 1.5386886108670726e-02 2.9971313048243670e-01  0.0000000000000000e+00 1.5434891645675760e-02 3.0703015616576756e-01  0.0000000000000000e+00 1.5495667874664443e-02 3.1487008307631886e-01  0.0000000000000000e+00 1.5569613507633803e-02 3.2311026010680383e-01  0.0000000000000000e+00 1.5657882674337802e-02 3.3168143428107716e-01  0.0000000000000000e+00 1.5763053374342473e-02 3.4072267733007117e-01  0.0000000000000000e+00 1.5886904797830378e-02 3.5024823937191285e-01  0.0000000000000000e+00 1.6033678252650393e-02 3.6040568450450627e-01  0.0000000000000000e+00 1.6210827722703398e-02 3.7155754986971001e-01  0.0000000000000000e+00 1.6432101926265263e-02 3.8413247611169915e-01  0.0000000000000000e+00 1.6707847402713440e-02 3.9842493534648599e-01  0.0000000000000000e+00 1.7052179506617880e-02 4.1448423158818704e-01  0.0000000000000000e+00 1.7481589815719730e-02 4.3243785095206372e-01  0.0000000000000000e+00 1.8006430945033836e-02 4.5216990583610833e-01  0.0000000000000000e+00 1.8630462743181694e-02 4.7295650356627433e-01  0.0000000000000000e+00 1.9353573854804150e-02 4.9446485603365520e-01  0.0000000000000000e+00 2.0180409647809025e-02 5.1636316650322567e-01  0.0000000000000000e+00 2.1130282848500367e-02 5.3879567386536642e-01  0.0000000000000000e+00 2.2252189755932555e-02 5.6243843390194947e-01  0.0000000000000000e+00 2.3607425895125416e-02 5.8774616672733737e-01  0.0000000000000000e+00 2.5287236979596162e-02 6.1527598507651227e-01  0.0000000000000000e+00 2.7393221929712375e-02 6.4523596932263338e-01  0.0000000000000000e+00 3.0001658255420425e-02 6.7690454572321690e-01  0.0000000000000000e+00 3.3125526974292961e-02 7.0891167171012803e-01  0.0000000000000000e+00 3.6792437321436375e-02 7.4041295784721850e-01  0.0000000000000000e+00 4.1095496905571453e-02 7.7133917769602278e-01  0.0000000000000000e+00 4.6196007506586520e-02 8.0182625358224457e-01  0.0000000000000000e+00 5.2327693743685059e-02 8.3214506813334743e-01  0.0000000000000000e+00 5.9799510471093720e-02 8.6230502153392230e-01  0.0000000000000000e+00 6.8729527334388155e-02 8.9139659583637310e-01  0.0000000000000000e+00 7.9019559928685007e-02 9.1809044793813732e-01  0.0000000000000000e+00 9.0419410708738518e-02 9.4155226355622801e-01  0.0000000000000000e+00 1.0301050784261583e-01 9.6178884543106946e-01  0.0000000000000000e+00 1.1685760943830249e-01 9.7897891623717981e-01  0.0000000000000000e+00 1.3237216939180099e-01 9.9332736474239358e-01  0.0000000000000000e+00 1.4959569021214297e-01 1.0044407185720508e+00  0.0000000000000000e+00 1.6825570551141816e-01 1.0120437657600192e+00  0.0000000000000000e+00 1.8776553679784622e-01 1.0158884696164219e+00  0.0000000000000000e+00 2.0771697026437430e-01 1.0163092448829298e+00  0.0000000000000000e+00 2.2828794464472785e-01 1.0136313717324834e+00  0.0000000000000000e+00 2.5002167415062898e-01 1.0078323218072018e+00  0.0000000000000000e+00 2.7296216847992633e-01 9.9891482044932856e-01  0.0000000000000000e+00 2.9640456890593925e-01 9.8709980614885207e-01  0.0000000000000000e+00 3.1921810172938259e-01 9.7354925456918862e-01  0.0000000000000000e+00 3.6480195883571964e-01 9.4009644387844937e-01  0.0000000000000000e+00 3.8799350654097059e-01 9.2056345244866367e-01  0.0000000000000000e+00 4.1125463052045763e-01 8.9935310659968948e-01  0.0000000000000000e+00 4.3425249811598626e-01 8.7685407968166984e-01  0.0000000000000000e+00 4.5627908787966470e-01 8.5407452653608396e-01  0.0000000000000000e+00 4.7763031414665930e-01 8.3081811466154298e-01  0.0000000000000000e+00 4.9861518425543222e-01 8.0694216264401530e-01  0.0000000000000000e+00 5.1947526827762736e-01 7.8221998941883297e-01  0.0000000000000000e+00 5.3998629492208594e-01 7.5700443205098622e-01  0.0000000000000000e+00 5.5958742553073981e-01 7.3209149339797541e-01  0.0000000000000000e+00 5.7814558666257321e-01 7.0778332934575927e-01  0.0000000000000000e+00 5.9588308559449843e-01 6.8392884261051601e-01  0.0000000000000000e+00 6.1331790113504581e-01 6.5990253550523659e-01  0.0000000000000000e+00 6.3036321167813880e-01 6.3586016461629780e-01  0.0000000000000000e+00 6.4671868545967759e-01 6.1229208158387216e-01  0.0000000000000000e+00 6.6203565315569990e-01 5.8978520837613557e-01  0.0000000000000000e+00 6.7639659480954328e-01 5.6830434376248351e-01  0.0000000000000000e+00 6.9013869140764927e-01 5.4741291915095058e-01  0.0000000000000000e+00 7.0354207801164170e-01 5.2672324575505558e-01  0.0000000000000000e+00 7.1655274218313580e-01 5.0634698856903038e-01  0.0000000000000000e+00 7.2892957600753894e-01 4.8669487738732498e-01  0.0000000000000000e+00 7.4027958576258113e-01 4.6844152015166540e-01  0.0000000000000000e+00 7.5088905641719428e-01 4.5118459765717411e-01  0.0000000000000000e+00 7.6095476684945040e-01 4.3463636073212891e-01  0.0000000000000000e+00 7.7074222191774822e-01 4.1838298136696728e-01  0.0000000000000000e+00 7.8020405389867764e-01 4.0251741745476044e-01  0.0000000000000000e+00 7.8912139603358389e-01 3.8742526903652363e-01  0.0000000000000000e+00 7.9732774207772861e-01 3.7341521539587380e-01  0.0000000000000000e+00 8.0485279074676497e-01 3.6046444717167114e-01  0.0000000000000000e+00 8.1188169312814751e-01 3.4827850224680934e-01  0.0000000000000000e+00 8.1860242744461964e-01 3.3654511681474614e-01  0.0000000000000000e+00 8.2511802465734374e-01 3.2509371109434176e-01  0.0000000000000000e+00 8.3140006410045142e-01 3.1397978342792293e-01  0.0000000000000000e+00 8.3724743215817321e-01 3.0356880019843024e-01  0.0000000000000000e+00 8.4252885138377587e-01 2.9410757082437949e-01  0.0000000000000000e+00 8.4737218069280829e-01 2.8538130255171718e-01  0.0000000000000000e+00 8.5179103307138027e-01 2.7737833020505903e-01  0.0000000000000000e+00 8.5580917404183143e-01 2.7006447161237523e-01  0.0000000000000000e+00 8.5970275386784689e-01 2.6294471710091905e-01  0.0000000000000000e+00 8.6351112026942278e-01 2.5595140699601243e-01  0.0000000000000000e+00 8.6705317096211354e-01 2.4941651418864774e-01  0.0000000000000000e+00 8.7042291913297187e-01 2.4317219845693655e-01  0.0000000000000000e+00 8.7350790492591035e-01 2.3743017715302367e-01  0.0000000000000000e+00 8.7629996375135788e-01 2.3221196211392101e-01  0.0000000000000000e+00 8.7876563937559782e-01 2.2758477202568719e-01  0.0000000000000000e+00 8.8094449552764831e-01 2.2348077803938940e-01  0.0000000000000000e+00 8.8285833408928727e-01 2.1986379502033696e-01  0.0000000000000000e+00 8.8454537377327780e-01 2.1666596535676261e-01  0.0000000000000000e+00 8.8607886935667679e-01 2.1375181179273794e-01  0.0000000000000000e+00 8.8748110218885079e-01 2.1108115906981770e-01  0.0000000000000000e+00 8.8873128833344528e-01 2.0869521395672774e-01  0.0000000000000000e+00 8.8983016612839561e-01 2.0659345744682903e-01  0.0000000000000000e+00 8.9077724837183581e-01 2.0477856959615612e-01  0.0000000000000000e+00 8.9162884975160905e-01 2.0314457439452407e-01  0.0000000000000000e+00 8.9232448258870511e-01 2.0180805201944177e-01  0.0000000000000000e+00 8.9289139343631130e-01 2.0071798229103427e-01  0.0000000000000000e+00 8.9347372397987290e-01 1.9959510065592204e-01  0.0000000000000000e+00 8.9387206625246540e-01 1.9883110945593049e-01  0.0000000000000000e+00 8.9369620779866399e-01 1.9916735538411179e-01  0.0000000000000000e+00 8.9354922040704421e-01 1.9945050315430046e-01  0.0000000000000000e+00 8.9328885760098042e-01 1.9995218642649071e-01  0.0000000000000000e+00 8.9286775400335117e-01 2.0076260904715679e-01  0.0000000000000000e+00 8.9229252715952656e-01 2.0186834390402375e-01  0.0000000000000000e+00 8.9163147048741809e-01 2.0313838355246763e-01  0.0000000000000000e+00 8.9084083059702102e-01 2.0465523928238416e-01  0.0000000000000000e+00 8.9011124454857593e-01 2.0605557889390838e-01  0.0000000000000000e+00 8.8902391480328347e-01 2.0813487438182118e-01  0.0000000000000000e+00 8.8791192841575328e-01 2.1025812534016097e-01  0.0000000000000000e+00 8.8671745054404827e-01 2.1253539422046991e-01  0.0000000000000000e+00 8.8549465493713742e-01 2.1486322456210111e-01  0.0000000000000000e+00 8.8413147529996794e-01 2.1745226033738677e-01  0.0000000000000000e+00 8.8257056700120173e-01 2.2040889117657295e-01  0.0000000000000000e+00 8.8091914416778605e-01 2.2352955326630394e-01  0.0000000000000000e+00 8.7911540019152223e-01 2.2692895294505794e-01  0.0000000000000000e+00 8.7712613568723519e-01 2.3066640614741660e-01  0.0000000000000000e+00 8.7491805803998091e-01 2.3480120093181667e-01  0.0000000000000000e+00 8.7246203542614631e-01 2.3938334834959007e-01  0.0000000000000000e+00 8.6979054681441859e-01 2.4434968360480333e-01  0.0000000000000000e+00 8.6698720814705199e-01 2.4954215619573658e-01  0.0000000000000000e+00 8.6408161698828656e-01 2.5490446790234766e-01  0.0000000000000000e+00 8.6110168452616498e-01 2.6038428500233313e-01  0.0000000000000000e+00 8.5808193192168114e-01 2.6591779994951420e-01  0.0000000000000000e+00 8.5500974889227965e-01 2.7152762878089776e-01  0.0000000000000000e+00 8.5185303327355522e-01 2.7727132580293901e-01  0.0000000000000000e+00 8.4853308250493575e-01 2.8328949144576338e-01  0.0000000000000000e+00 8.4497144109346811e-01 2.8972018567801755e-01  0.0000000000000000e+00 8.4109662727007151e-01 2.9668655329089899e-01  0.0000000000000000e+00 8.3689659716063469e-01 3.0420342043514736e-01  0.0000000000000000e+00 8.3236901230555704e-01 3.1226771155926603e-01  0.0000000000000000e+00 8.2759197825832143e-01 3.2073360394657818e-01  0.0000000000000000e+00 8.2262655560115105e-01 3.2948934445498584e-01  0.0000000000000000e+00 8.1761096783590281e-01 3.3828863506309581e-01  0.0000000000000000e+00 8.1255067811227810e-01 3.4712175954806773e-01  0.0000000000000000e+00 8.0738335923685212e-01 3.5609560753041525e-01  0.0000000000000000e+00 8.0195744646094902e-01 3.6546772601240618e-01  0.0000000000000000e+00 7.9613578005398111e-01 3.7546661289902422e-01  0.0000000000000000e+00 7.8967007943817169e-01 3.8649950254034349e-01  0.0000000000000000e+00 7.8272715648900615e-01 3.9826836476893968e-01  0.0000000000000000e+00 7.7551776371984316e-01 4.1040205548781855e-01  0.0000000000000000e+00 7.6800496954967523e-01 4.2295130268400521e-01  0.0000000000000000e+00 7.6031111149610464e-01 4.3570670069941797e-01  0.0000000000000000e+00 7.5243198457112903e-01 4.4866505508869919e-01  0.0000000000000000e+00 7.4439326326385047e-01 4.6178084646680662e-01  0.0000000000000000e+00 7.3545980203800332e-01 4.7622596474268358e-01  0.0000000000000000e+00 7.2589669145018798e-01 4.9153918005430669e-01  0.0000000000000000e+00 7.1556416698393632e-01 5.0790761750809799e-01  0.0000000000000000e+00 7.0479596698441915e-01 5.2477727342089386e-01  0.0000000000000000e+00 6.9360592802160936e-01 5.4209258343743327e-01  0.0000000000000000e+00 6.8210372766780847e-01 5.5967200347694268e-01  0.0000000000000000e+00 6.7012311183435302e-01 5.7773656026448350e-01  0.0000000000000000e+00 6.5733983387627193e-01 5.9673263297214452e-01  0.0000000000000000e+00 6.4350135213489990e-01 6.1696900780576625e-01  0.0000000000000000e+00 6.1308926863867685e-01 6.6022302097988339e-01  0.0000000000000000e+00 5.9714531761300038e-01 6.8221172972478339e-01  0.0000000000000000e+00 5.8069939984616714e-01 7.0439323765219597e-01  0.0000000000000000e+00 5.6334298078129552e-01 7.2722885053491004e-01  0.0000000000000000e+00 5.4472188076962191e-01 7.5106200299741044e-01  0.0000000000000000e+00 5.2486982571700713e-01 7.7567851693882794e-01  0.0000000000000000e+00 5.0426815488801113e-01 8.0033997785286848e-01  0.0000000000000000e+00 4.8325376147498306e-01 8.2452520812058472e-01  0.0000000000000000e+00 4.6167144544297112e-01 8.4830729885678813e-01  0.0000000000000000e+00 4.3902924644862618e-01 8.7203444960390220e-01  0.0000000000000000e+00 4.1520275247441879e-01 8.9559643344212425e-01  0.0000000000000000e+00 3.9065654890903351e-01 9.1821932261082051e-01  0.0000000000000000e+00 3.6602199439162003e-01 9.3914544074463646e-01  0.0000000000000000e+00 3.4131093767983933e-01 9.5818538505532358e-01  0.0000000000000000e+00 3.1635944988010622e-01 9.7524259687730586e-01  0.0000000000000000e+00 2.9080562368992741e-01 9.9017725631085218e-01  0.0000000000000000e+00 2.6502095988844682e-01 1.0023468366959956e+00  0.0000000000000000e+00 2.3993296162122751e-01 1.0108919984573119e+00  0.0000000000000000e+00 2.1584051957103992e-01 1.0156800628908857e+00  0.0000000000000000e+00 1.9267754413573454e-01 1.0163617771151958e+00  0.0000000000000000e+00 1.7015590002790554e-01 1.0126500330876764e+00  0.0000000000000000e+00 1.4865872795258825e-01 1.0040652095925522e+00  0.0000000000000000e+00 1.2883420758763156e-01 9.9053390671459740e-01  0.0000000000000000e+00 1.1108979000364198e-01 9.7250845068526603e-01  0.0000000000000000e+00 9.5339184163270391e-02 9.5013461016445999e-01  0.0000000000000000e+00 8.1339496449284190e-02 9.2341052031284898e-01  0.0000000000000000e+00 6.8972637803986200e-02 8.9221857808775573e-01  0.0000000000000000e+00 5.8500509118545589e-02 8.5760885713784352e-01  0.0000000000000000e+00 4.9922913437120256e-02 8.2107294279291587e-01  0.0000000000000000e+00 4.3070858987407021e-02 7.8392856795649168e-01  0.0000000000000000e+00 3.7556308633515903e-02 7.4642728612731268e-01  0.0000000000000000e+00 3.3060570705206960e-02 7.0837706792009880e-01  0.0000000000000000e+00 2.9404756771964736e-02 6.7016461440525721e-01  0.0000000000000000e+00 2.6485475820097869e-02 6.3291387607607730e-01  0.0000000000000000e+00 2.4201251202215984e-02 5.9789825565393684e-01  0.0000000000000000e+00 2.2431043731798911e-02 5.6591059045668823e-01  0.0000000000000000e+00 2.1035438026856215e-02 5.3664165633097971e-01  0.0000000000000000e+00 1.9899630120810113e-02 5.0910964023631777e-01  0.0000000000000000e+00 1.8957681313367253e-02 4.8291975088248984e-01  0.0000000000000000e+00 1.8177405754829394e-02 4.5800508626747766e-01  0.0000000000000000e+00 1.7541623317659572e-02 4.3469754430189322e-01  0.0000000000000000e+00 1.7034658255276360e-02 4.1358677621210055e-01  0.0000000000000000e+00 1.6642038440763434e-02 3.9494363542566663e-01  0.0000000000000000e+00 1.6337493724623935e-02 3.7880972643302541e-01  0.0000000000000000e+00 1.6103270085272379e-02 3.6473458333485426e-01  0.0000000000000000e+00 1.5917198322384418e-02 3.5228470616122726e-01  0.0000000000000000e+00 1.5768426917984250e-02 3.4103386729005780e-01  0.0000000000000000e+00 1.5647212589479369e-02 3.3063254500714717e-01  0.0000000000000000e+00 1.5550469028791642e-02 3.2094527658907590e-01  0.0000000000000000e+00 1.5472068107242812e-02 3.1187456529137469e-01  0.0000000000000000e+00 1.5410946766286118e-02 3.0339073895599389e-01  0.0000000000000000e+00 1.5365077673341932e-02 2.9569450772783329e-01  0.0000000000000000e+00 1.5332964803403584e-02 2.8885342497081307e-01  0.0000000000000000e+00 1.5310526225402949e-02 2.8288640915602414e-01  0.0000000000000000e+00 1.5296724239392287e-02 2.7783760538906205e-01  0.0000000000000000e+00 1.5288230795068313e-02 2.7373638774053560e-01  0.0000000000000000e+00 1.6836749889127953e-02 4.0443579920004713e-01  0.0000000000000000e+00 7.7940711757705528e-01 4.0386466594249071e-01  0.0000000000000000e+00 2.1785291522018014e-02 5.5299137425822742e-01  0.0000000000000000e+00 6.3510961527149101e-01 6.2907773257330146e-01  0.0000000000000000e+00 1.5286968846443934e-02 2.7289579769807698e-01  0.0000000000000000e+00 8.7404995774504990e-01 2.3641162124417348e-01  0.0000000000000000e+00 8.4791371469567639e-02 9.3071018274477568e-01  0.0000000000000000e+00 3.5328234170860978e-01 9.4932207361137555e-01  0.0000000000000000e+00 8.9253245435560624e-01 2.0139602948994414e-01  0.0000000000000000e+00 8.0791160027027831e-01 3.5517037467137391e-01  0.0000000000000000e+00 2.8000782812652274e-02 6.5308545134026630e-01  0.0000000000000000e+00 8.3808188151022844e-01 3.0208132134598598e-01  0.0000000000000000e+00 8.3987399360695736e-01 2.9886754566306578e-01  0.0000000000000000e+00 6.3155272608333438e-02 8.7412817937160670e-01  0.0000000000000000e+00 7.4538678997121444e-01 4.6015808776779560e-01  0.0000000000000000e+00 1.7263327334384668e-02 4.2358779707124145e-01  0.0000000000000000e+00 8.6192107675986007e-01 2.5887456316726859e-01  0.0000000000000000e+00 8.7918921432404462e-01 2.2678117891562422e-01  0.0000000000000000e+00 1.5723669193608038e-02 3.3744048987541492e-01  0.0000000000000000e+00 1.7963606156614592e-01 1.0147385575169821e+00  0.0000000000000000e+00 6.6942174166986901e-01 5.7878080892615225e-01  0.0000000000000000e+00 3.5321591937454738e-01 9.4932766002298341e-01  0.0000000000000000e+00 1.5415194346900252e-02 3.0411362112910667e-01  0.0000000000000000e+00 8.8749392677531203e-01 2.1104662832886562e-01  0.0000000000000000e+00 5.7079183931149902e-01 7.1749930921883986e-01  0.0000000000000000e+00 4.7147791287490448e-01 8.3764065236842578e-01  0.0000000000000000e+00 1.5291275361083094e-02 2.7554048135405768e-01  0.0000000000000000e+00 1.5601372714518466e-02 3.2622940323690308e-01  0.0000000000000000e+00 7.2973925143422302e-01 4.8540146515015109e-01  0.0000000000000000e+00 8.8596097575064159e-01 2.1396736704057384e-01  0.0000000000000000e+00 1.7811555603694840e-01 1.0144613969339074e+00  0.0000000000000000e+00 3.4345750195410203e-02 7.2005238758786860e-01  0.0000000000000000e+00 8.9179436020414060e-01 2.0281662363092329e-01  0.0000000000000000e+00 4.8947443567837728e-01 8.1745865864391887e-01  0.0000000000000000e+00 5.5326403692826076e-01 7.4021622085617700e-01  0.0000000000000000e+00 1.5280813423160849e-02 2.6688288025050655e-01  0.0000000000000000e+00 8.5701272749894641e-01 2.6786310625554044e-01  0.0000000000000000e+00 8.0914674432419664e-01 3.5303594318125386e-01  0.0000000000000000e+00 1.5351074374580239e-02 2.9287897340567759e-01  0.0000000000000000e+00 1.9445546402551313e-02 4.9701482493030225e-01  0.0000000000000000e+00 6.8550820942620927e-01 5.5449433029175210e-01  0.0000000000000000e+00 8.9030068271747209e-01 2.0568165326166679e-01  0.0000000000000000e+00 2.5895612956530195e-01 1.0046579929292565e+00  0.0000000000000000e+00 1.6339810120881041e-02 3.7904133346574093e-01  0.0000000000000000e+00 1.2454660229925718e-01 9.8669451710707778e-01  0.0000000000000000e+00 8.9289239285577704e-01 2.0070554012538055e-01  0.0000000000000000e+00 8.8108479677609974e-01 2.2320780269027679e-01  0.0000000000000000e+00 4.2291770109025095e-01 8.8816679188187631e-01  0.0000000000000000e+00 7.8455740125671969e-01 3.9516393825140578e-01  0.0000000000000000e+00 1.6010917287856228e-02 3.5871091055845367e-01  0.0000000000000000e+00 2.6399324934002356e-02 6.3177607450702156e-01  0.0000000000000000e+00 1.0197376437675833e-01 9.6049363459311798e-01  0.0000000000000000e+00 8.7019489558463625e-01 2.4359191558641197e-01  0.0000000000000000e+00 2.5036028122804077e-01 1.0078198564545320e+00  0.0000000000000000e+00 7.5542236892523917e-01 4.4375585737851742e-01  0.0000000000000000e+00 4.9270833096087950e-02 8.1772284918215987e-01  0.0000000000