<?xml version="1.0"?>
<VTKFile type="UnstructuredGrid"  version="0.1"  >
<UnstructuredGrid>
<Piece  NumberOfPoints="600" NumberOfCells="1069">
<Points>
<DataArray  type="Float64"  NumberOfComponents="3"  format="ascii">239.8 188 0  250.2 180 0  258.2 172.4 0  257 169.4 0  259.9 157.4 0  258.7 150.3 0  261 143.5 0  251.7 144.4 0  250 138.7 0  247 138.1 0  245.2 130.8 0  247.3 126.4 0  242.7 118.6 0  231.2 107.7 0  226 102.4 0  226.5 93.90000000000001 0  224.5 91.19999999999999 0  224.5 84.09999999999999 0  234.5 73.80000000000001 0  228.4 68.90000000000001 0  230 70 0  233.4 68 0  222.7 61.5 0  220.6 45.5 0  223.4 49.40000000000001 0  224 47 0  221.8 43.09999999999999 0  221 38.40000000000001 0  219.5 38.5 0  219.4 41.69999999999999 0  217.1 36.90000000000001 0  209.7 36 0  209.5 31.69999999999999 0  205.1 29.90000000000001 0  201.5 30.40000000000001 0  199.2 38.69999999999999 0  201.8 41.40000000000001 0  194.8 53.80000000000001 0  196.1 57.69999999999999 0  193 59 0  191.4 66.09999999999999 0  193.5 66.5 0  194.1 64.40000000000001 0  195.6 64.69999999999999 0  195.4 72.40000000000001 0  199.5 77.30000000000001 0  197.7 86.90000000000001 0  200.6 87.5 0  201.5 91 0  198 94.80000000000001 0  198.6 100 0  197.3 105.4 0  198 109.5 0  197 112.7 0  198.3 116.1 0  201.3 122 0  207.2 121 0  208.1 126.7 0  205.6 127.9 0  209.1 134.9 0  210.9 144.4 0  210.1 147.9 0  213 148.4 0  215.4 149.3 0  215.1 152.8 0  219.9 159.7 0  220.3 163.2 0  218.7 164.9 0  219.9 166.7 0  221.9 169.7 0  220 170.3 0  224.9 174.7 0  229.8 177.4 0  229.7 181 0  228 172.9 0  239 178 0  240.4 180 0  239 181.5 0  241.2 185.9 0  242.95 187.99 0  241.113414658978 187.995830429654 0  242.142964269982 187.9925620181905 0  243.6619187087475 187.2054164851183 0  244.631513060971 186.1368566403919 0  245.9520480703466 184.6815359886801 0  247.7505449816197 182.6994683581873 0  252.8666666668011 177.466666666539 0  255.5333333336077 174.9333333330727 0  257.9666666666661 165.4000000000025 0  258.9333333333339 161.3999999999974 0  259.3000000000018 153.8500000000108 0  259.849999999995 146.9000000000149 0  256.350000000011 143.9499999999989 0  250.8500000000015 141.5500000000051 0  246.1000000000042 134.450000000017 0  245.0000000000049 122.5000000000082 0  239.8250000000041 115.875000000004 0  236.9500000000083 113.1500000000079 0  234.0750000000041 110.4250000000039 0  228.6000000000041 105.0500000000042 0  226.25 98.15000000000002 0  224.5 87.65000000001388 0  227.8333333333301 80.66666666667 0  231.1666666666644 77.23333333333571 0  232.2500000000014 71.90000000000116 0  230.8999999999995 68.45000000000009 0  225.5500000000108 65.20000000001409 0  222.9333333333329 57.46666666667507 0  223.1666666666663 53.43333333333877 0  218.2500000000016 39.30000000000339 0  213.4000000000277 36.45000000000337 0  200.3500000000025 34.54999999999097 0  199.4666666666726 45.53333333332282 0  197.1333333333385 49.66666666665756 0  193.5499999999978 61.6999999999891 0  193.3999999999962 69.24999999999406 0  197.4499999999954 74.84999999999454 0  198.6000000000007 82.09999999999631 0  199.7500000000014 92.8999999999985 0  198.2999999999997 97.39999999999726 0  197.950000000001 102.699999999996 0  199.7999999999944 119.049999999989 0  204.2499999999946 121.5000000000009 0  207.6499999999987 123.8499999999919 0  207.35 131.4 0  209.9999999999998 139.649999999999 0  217.4999999999938 156.249999999991 0  223.4 172.2 0  234.349999999995 179.5000000000016 0  243.6879031604435 137.0140197666175 0  200.5383884465266 74.3488835611292 0  236.0631303447202 117.0934887033495 0  255.2860706566257 162.4962097513293 0  210.288597171716 124.9641969758756 0  200.5494091764226 101.6938959209836 0  221.0463142825589 155.4583368622661 0  213.2458552033902 137.0182369603261 0  202.5715495252679 76.72215432732189 0  203.3954031521662 88.63888283314805 0  204.2685850489914 91.3771816532193 0  227.6002395557545 108.6285485308707 0  203.628067965887 73.80056467640915 0  205.5882193517793 76.19298591547215 0  219.3893731065793 59.36381842571261 0  222.6962970705901 100.2685345181304 0  206.2147206748961 89.23684943534887 0  224.5717795045128 68.90112930058935 0  207.1505150846513 91.97409496002633 0  206.6973804802006 73.20614062920998 0  209.0198262461606 75.84435446174592 0  204.6828826698789 70.78585325419728 0  244.5505030757118 140.1958289722003 0  241.2713205316759 139.2760911012237 0  242.0887623359319 142.523888210035 0  238.8201809392432 141.5810446831215 0  239.6254755922404 144.8663288044098 0  238.0282380951174 138.3361101328854 0  235.5650201404635 140.6403522599634 0  234.7868703265066 137.3765638391416 0  232.3671992655526 139.7040340002533 0  231.5735594060041 136.4371341666237 0  203.6025996895933 45.13245413868078 0  209.0094500142995 89.77916893533093 0  234.0048963149566 134.0619286436701 0  230.7388584519252 133.0932019642386 0  256.0202376970822 152.4353991158102 0  233.1239077827668 142.9168616681826 0  229.9476468053365 142.0041066209365 0  207.8316386186595 70.1760146256688 0  205.8080150778045 67.77328389450008 0  210.1255397865818 92.58553759086743 0  249.9530000513888 175.7831884132348 0  230.7520925362455 145.2114145624654 0  227.5614746466729 144.2879078440436 0  226.855634298717 141.1029513419209 0  221.109901317114 86.07738557802102 0  221.3898452401857 82.41394785245797 0  233.1906280944642 130.7538222264552 0  229.849944657733 129.8156996791429 0  227.4514186000422 132.1240250470279 0  226.5693510741891 128.7503487535618 0  208.0732626511005 94.86195720558288 0  211.0579654481564 95.54875779444082 0  209.0041892644107 97.86214677695602 0  216.7276956906574 41.503774594868 0  224.4517166451922 143.3327513982825 0  222.7890579510523 161.0597281586643 0  209.0698801997012 67.10609773523754 0  206.9141710660066 64.58868367949086 0  211.5265666272545 70.15591236789595 0  218.2872405225432 83.97244872861398 0  207.7311279855657 86.71297189445447 0  242.9081583239214 145.8040728889821 0  240.4621480942806 148.1601866910276 0  243.7562457682554 149.0907552716282 0  241.3145175595932 151.4726760652338 0  244.57940289053 152.3666461928266 0  242.1615185950008 154.7794567484269 0  238.8718789959482 153.837018554675 0  239.7122407256576 157.1523621063041 0  236.4289375384117 156.2070529629317 0  237.2412111497984 159.5248795948406 0  240.5638486223294 160.4901132255754 0  238.1023772270576 162.8725976094984 0  241.406699334305 163.8359650846702 0  238.9630278156374 166.2175426435888 0  234.7361516891476 161.8928266488476 0  213.124654294145 93.56046727196781 0  212.0434836741439 98.5447165103807 0  209.9504013355788 100.9044854564887 0  213.0958854424699 101.5871381629478 0  210.9302285957408 103.9580876602797 0  214.0010858928389 104.7096094485587 0  211.9141605791952 107.0615795921763 0  214.9890206858068 107.8102538193681 0  212.9269247290344 110.1901972673309 0  216.0786784436673 110.8721476340726 0  209.7617142319936 109.4041944495815 0  213.932211035267 113.2627867337288 0  217.0813395790477 113.941453344218 0  218.441750941724 80.63655841437071 0  242.2412500877879 167.1781012200828 0  229.2280100589433 126.5393356137107 0  225.9203624138538 125.4446005931909 0  223.3571983269889 127.7265579015054 0  222.6136526124249 124.535547281476 0  225.3056527306165 122.1016033222114 0  220.3254947810712 126.7409252226328 0  201.0777098578984 116.3274181811247 0  219.7857338015156 123.3740225787907 0  228.3312248450329 147.5116593523427 0  223.7608055035202 140.2236832285434 0  221.3299816979287 142.3937311365609 0  245.4512147769152 155.7068319139237 0  214.9140854911084 116.3016229600955 0  241.4261562479406 177.9745543740275 0  202.8157779574545 68.56000166221941 0  240.0703975438099 175.788326095019 0  222.1092806876692 145.4935485219417 0  220.9446699547174 129.9892194059113 0  217.7131509102484 129.0121441451285 0  231.966766611991 173.6290727753235 0  244.7035101352062 164.8150950666352 0  215.4589412711449 82.35047797613059 0  218.5358717759109 108.3057574313637 0  210.0910095413371 63.89870618133642 0  207.8879031726656 61.27101234314142 0  219.5945508510063 49.26517889117938 0  204.4640092132492 79.16637174968085 0  219.054165325738 63.24726086273807 0  245.5364828646638 168.1932520030346 0  204.1722248369768 62.21708558088665 0  205.6821920907016 58.50393459316535 0  209.6155639374877 57.86856426712311 0  196.5553895895766 69.81481204083099 0  235.6123608690412 152.8874163252039 0  233.2157615582107 155.2532908181879 0  240.6837858645011 122.4172544901715 0  210.8141135626509 127.8682271622992 0  245.3812170314571 182.2522052029404 0  206.9456715292139 54.99559933887414 0  210.5075513436263 54.0697256538542 0  207.9169085133073 103.1765167571325 0  223.2431750051092 164.070583057325 0  225.7483443677002 162.1151723759482 0  206.0378951001477 96.94148998994152 0  242.6796154699829 175.6597339900036 0  214.6838055972238 146.7252062992904 0  211.9990465678071 115.5576487680909 0  221.4613603554043 78.78973924681317 0  218.3291154698718 77.0769598533563 0  200.3358005877804 107.1120377748188 0  247.4072167499741 149.4171847419639 0  211.6397508657857 39.55684201930068 0  226.8243927196049 72.17619845696734 0  215.354291780634 85.55308818793476 0  236.5600255652378 131.6759521500912 0  226.0129792461303 165.2837912620818 0  218.060680211082 117.0067370946569 0  220.2726382852709 114.6051380114157 0  212.8793579154693 118.3711453694285 0  215.022609143906 99.35520341734289 0  203.0459334752391 85.71272568041367 0  202.8915272398735 55.67723839797077 0  220.5465456567309 139.1747891305704 0  239.6921265383864 169.3260213165692 0  236.6712881821608 168.5826958099534 0  218.0125893802946 141.5012621699478 0  201.3193403438535 110.3399099823547 0  203.3799271438462 107.9393487975089 0  248.1978655115356 165.7601936670729 0  248.8804221900089 169.2105116441819 0  237.1867529048816 147.1869371163321 0  236.7369473929319 176.2832209442509 0  247.3010859001464 162.3677476585113 0  204.3727171343656 110.8209535355564 0  235.7766571132668 128.3537547116865 0  217.8932394506906 150
[...]
<PointData  Vectors="f_12"> 
<DataArray  type="Float64"  Name="f_12"  NumberOfComponents="3" format="ascii">4.9960993881122473e-01 8.8320305079979247e-02 2.0740753184312891e-01  4.9932250449441412e-01 8.8292451863467042e-02 2.0624271046314321e-01  4.9761912873115766e-01 8.9451158649225163e-02 1.9868866560029683e-01  4.9570601797000047e-01 9.1627164706335765e-02 1.8977831119569794e-01  4.8551314840010101e-01 1.4314894664239938e-01 1.2187899642764712e-01  4.9764294298217249e-01 2.4781070458510215e-01 1.0194754994499124e-01  4.9685626258344390e-01 2.6693559100630143e-01 8.7142527511888543e-02  5.8689417928988219e-01 4.9737201220916821e-01 2.2954597013292122e-01  6.7566583072967734e-01 5.3303978348596448e-01 4.9413415535361188e-01  6.8051095321927280e-01 4.4095456398791405e-01 6.2184850635587841e-01  5.6964861661884125e-01 1.3445766855103677e-01 4.9664170844181876e-01  5.3048188366273996e-01 1.1366469287068323e-01 3.3503026305031341e-01  5.2090445165615729e-01 2.3048696350597167e-01 2.0879240817974656e-01  5.9386523403585834e-01 4.4544416981479612e-01 3.1788336917090593e-01  5.1997338649015823e-01 2.0336530386281571e-01 2.2399185692520457e-01  4.9363074384620753e-01 1.2568979978367825e-01 1.6517019613167941e-01  4.9851477484647294e-01 1.7112006940451910e-01 1.5606516757155298e-01  5.4403644623037428e-01 4.2699453966942724e-01 1.3925927558994633e-01  5.8848131061162712e-01 5.9129839504035042e-01 1.4285931155265508e-01  6.4155371795869653e-01 6.5569208539394708e-01 2.3780169962589839e-01  6.2474658221630697e-01 6.3871452474686008e-01 2.0751711408789494e-01  6.2488035323703606e-01 6.4233168487077119e-01 2.0585651901140636e-01  6.9534702660872716e-01 7.3687886572869354e-01 2.6866704903976518e-01  5.6850633456805910e-01 5.5020535485421362e-01 1.1458655727553990e-01  6.1671378681978839e-01 6.6373148007688121e-01 1.5437658325711046e-01  5.6504897506636043e-01 5.4501830418659325e-01 1.0838330424200529e-01  5.5571679667285578e-01 5.1408896321654352e-01 1.0404584428564466e-01  5.3927086917436196e-01 4.6604661556764143e-01 8.9099685925425123e-02  5.3995155338176670e-01 4.6759164680297560e-01 9.0017475417022930e-02  5.4562853525768984e-01 4.8088587280279166e-01 9.7997834793285221e-02  5.2041492811730306e-01 3.7980388247163699e-01 9.0690595743434174e-02  4.9666750375450952e-01 2.2989918947233004e-01 1.1005190847006584e-01  4.8640064536884042e-01 1.5635260896705541e-01 1.1787004433385766e-01  4.8374568203622342e-01 1.3397428925118923e-01 1.2086187955910808e-01  4.8315651951055277e-01 1.2869086910292801e-01 1.2169529693194803e-01  4.8748854324514113e-01 1.8034356159234127e-01 1.0759040315612561e-01  4.9595575852365875e-01 2.4064846265764409e-01 1.0065851496385336e-01  5.0732113756625263e-01 3.3405116187196215e-01 7.8279192636506276e-02  5.1272078955180667e-01 3.5581913267026072e-01 8.1467167015037048e-02  5.0866769447086613e-01 3.4164462689043451e-01 7.7608770294654780e-02  5.0818978179138963e-01 3.4190428817782981e-01 7.5831198354752924e-02  5.1057961359358628e-01 3.5122375593415106e-01 7.7415658221023753e-02  5.1306436803018252e-01 3.5894505618665951e-01 8.0371286002893783e-02  5.1600673970330169e-01 3.7017027838286370e-01 8.2329662071152415e-02  5.2060319808707989e-01 3.9219839606237356e-01 8.2137500796908125e-02  5.3508172178457769e-01 4.4658381943219594e-01 9.0165061862488016e-02  5.1566391032537007e-01 3.6121087917273387e-01 8.8077625783330477e-02  5.1506349556453834e-01 3.4717823048789020e-01 9.6265571902283950e-02  5.0338667277057836e-01 2.5493095026530688e-01 1.1904831246424423e-01  4.9412713896125704e-01 1.7299897390504901e-01 1.3832754487218324e-01  4.9924319437704567e-01 1.3641350550612702e-01 1.8262666123473859e-01  5.2058572540744374e-01 1.2253623028548494e-01 2.8459582620664275e-01  5.5966742107824874e-01 1.3968500050684737e-01 4.4926380653847203e-01  6.0215825399381306e-01 1.7203817194336785e-01 6.1108938952747194e-01  6.4633358982213041e-01 2.3471677302622013e-01 7.2772345903386126e-01  7.0089634933571288e-01 3.7170909862978441e-01 7.5739415744846672e-01  6.5528585673182727e-01 3.5941675953006241e-01 6.3344151189324160e-01  5.8438312244558055e-01 4.0379362618772674e-01 3.2082306226614576e-01  5.6988015603644837e-01 3.9663349246652602e-01 2.7094193680012446e-01  5.3737776138201032e-01 2.4243308754790821e-01 2.7153802435904084e-01  6.4461777087813732e-01 2.3789789197588973e-01 7.1466318334986345e-01  6.8385669891559264e-01 3.0245779905296150e-01 7.8450368229054024e-01  6.8754600195801241e-01 3.3556772421018222e-01 7.5773669644421182e-01  7.0375509327131869e-01 4.5939968952412702e-01 6.6012094265381072e-01  7.0106858203748590e-01 5.9999302769368335e-01 4.7368768320644289e-01  5.8697902416981262e-01 5.2401098500772314e-01 2.0513760899851691e-01  5.2361418841810980e-01 3.3651619634175950e-01 1.3416148053557908e-01  5.0720825686845938e-01 2.7483018293056810e-01 1.1818191286830518e-01  4.9938447207225178e-01 2.3911708125193162e-01 1.1350116274597316e-01  4.8999886870656933e-01 1.8601627583557512e-01 1.1303773382665398e-01  4.8906714870056062e-01 1.8757044329895076e-01 1.0900020492355110e-01  4.8516688624003368e-01 1.3093901632965541e-01 1.2741733452242340e-01  4.9468588512256456e-01 9.3534065045980760e-02 1.8463767361369823e-01  4.9604819757229340e-01 9.0621304614402209e-02 1.9172077849831817e-01  4.8794683487393192e-01 1.2181807009925816e-01 1.4285112467614694e-01  4.9700760205572181e-01 9.0382631056911536e-02 1.9573020415286324e-01  4.9876352318472772e-01 8.8790565173719055e-02 2.0370413173426621e-01  4.9924270275250832e-01 8.8437729408695875e-02 2.0584433379376776e-01  4.9958641703433138e-01 8.8305130799405884e-02 2.0731907004983491e-01  4.9959929234967310e-01 8.8312804993469884e-02 2.0736778583968915e-01  4.9960333560407233e-01 8.8315701952348113e-02 2.0738286943217268e-01  4.9960100207943542e-01 8.8313831445852184e-02 2.0737426899111217e-01  4.9959325574992869e-01 8.8309817428808682e-02 2.0734459121178586e-01  4.9957664654051792e-01 8.8301757212135679e-02 2.0728067717519300e-01  4.9955212194711607e-01 8.8284776166378656e-02 2.0718879320270289e-01  4.9947924788686271e-01 8.8276305714313164e-02 2.0689433903260115e-01  4.9889477033391183e-01 8.8532379288180391e-02 2.0436690631723356e-01  4.9828964085885791e-01 8.8936901195351276e-02 2.0168525315322605e-01  4.9099039825540164e-01 1.0038024907476360e-01 1.6632545741009069e-01  4.8691839979372409e-01 1.1712660531358821e-01 1.4156581092020765e-01  4.8913081232805933e-01 1.8557368271083097e-01 1.1026702253770448e-01  4.9917167669094975e-01 2.7122962519691651e-01 9.2326512723455365e-02  5.1184391638859028e-01 3.1669705061396553e-01 1.0662565975562559e-01  6.5121567468752573e-01 5.5449352322006851e-01 3.8990852401218679e-01  6.3792350137237197e-01 2.3665847718787941e-01 6.9553488651328321e-01  5.1838962266860511e-01 1.4589013112652838e-01 2.5918194461077843e-01  5.4252795895196360e-01 3.4028723510274383e-01 2.0958430487073168e-01  5.7511564803794046e-01 4.5038431343330221e-01 2.3835247888619379e-01  5.9796265920180547e-01 4.9256460929747664e-01 2.8321409211204629e-01  5.6195817140466087e-01 3.3696509331120539e-01 2.9363325785911570e-01  4.9646137085298481e-01 1.2207754848325386e-01 1.7943414792496062e-01  5.1558450997965999e-01 2.8429967040305359e-01 1.4440359588459592e-01  5.6946871471122984e-01 5.3810986502939662e-01 1.3166300507425796e-01  5.8259239779252758e-01 5.7896171405959562e-01 1.3612056394667463e-01  5.9701442072293454e-01 6.0427379212875065e-01 1.5732885687150996e-01  6.2498957064855820e-01 6.4035280711216103e-01 2.0729037473352652e-01  6.8747749046588758e-01 7.0270515867423844e-01 3.0007605189868403e-01  6.7403106762995957e-01 7.3648010910110995e-01 2.1923312331934491e-01  6.4406206694115442e-01 7.0660561568640468e-01 1.8068566462568672e-01  5.2886695668080741e-01 4.1562029877748641e-01 9.2780455367929643e-02  5.1166789842707650e-01 3.2910161346171957e-01 9.6751194200643098e-02  4.8443715879355193e-01 1.4721317360517802e-01 1.1594841586936981e-01  5.0497161888224140e-01 3.1127929790727560e-01 8.5777253256332939e-02  5.0564983840322131e-01 3.2514703057188271e-01 7.8734963330961971e-02  5.1052372020989412e-01 3.4889949589618624e-01 7.8830833738975731e-02  5.1175085965713518e-01 3.5643264641229011e-01 7.7783212038004326e-02  5.2966251849895507e-01 4.2719526372479477e-01 8.6687214232877730e-02  5.2266224608730361e-01 3.9681778468757262e-01 8.6021990765416445e-02  4.9631206055137533e-01 1.9787914744205731e-01 1.3057611749867523e-01  4.9479292287839161e-01 1.5519357460657379e-01 1.5240530124630303e-01  5.0838425094985895e-01 1.2455813378403957e-01 2.2936409897923848e-01  6.8490880464110226e-01 3.2116357308485538e-01 7.6756787900102108e-01  6.8809702248895066e-01 3.6117931478771198e-01 7.3308410647794409e-01  6.2328485045294368e-01 4.0640559658732917e-01 4.6845672356366025e-01  5.5362805843031537e-01 3.4502885942039618e-01 2.5208472878730798e-01  5.6286463964684874e-01 1.7452168566108905e-01 4.3769660273266142e-01  6.6114852072359886e-01 6.2665172552620474e-01 3.3126487869365467e-01  4.8614421846251105e-01 1.4495920742719620e-01 1.2316180154854492e-01  4.9616693947769686e-01 9.0522138390920270e-02 1.9227991520603618e-01  6.6446494569600267e-01 3.1560041673846001e-01 7.1098899247059699e-01  5.3953747937689456e-01 4.6042960055347970e-01 9.4072727185442226e-02  5.5770972575132949e-01 3.9358849484306813e-01 2.2366374303362793e-01  4.8848688461499645e-01 1.1363478317833303e-01 1.4940508109413730e-01  6.0565915035316409e-01 4.1348099008546518e-01 3.9494242924771428e-01  5.0329887830389686e-01 1.2882154286250527e-01 2.0457905074674015e-01  6.4530875946801169e-01 6.1537054909170186e-01 2.9788901977612520e-01  5.4596689466277981e-01 1.8744711090256216e-01 3.5276833176322270e-01  5.4561969706607749e-01 4.7957562545484039e-01 9.9134751498257095e-02  5.1156074639809901e-01 3.1362779814088720e-01 1.0785862078606756e-01  5.0353497128718272e-01 2.5409100651830380e-01 1.2011259781660498e-01  5.8236402233785844e-01 3.9770508088483902e-01 3.2040647200062516e-01  5.6044401362496810e-01 5.2279734974769088e-01 1.1215020092137931e-01  5.6626058301634719e-01 5.3794604672418378e-01 1.1830714542955216e-01  6.8117704746981111e-01 7.3936795900853103e-01 2.3239080348428884e-01  5.0151178952833175e-01 1.4171770800553510e-01 1.8837938538054638e-01  5.1116085048806348e-01 3.0283613563840400e-01 1.1406911886569127e-01  6.6827480654839067e-01 6.8233255047593422e-01 2.7882804320755161e-01  5.0257705445840561e-01 2.4167367382100663e-01 1.2497876789955675e-01  5.8824580333494858e-01 5.9264495951683316e-01 1.3868614577476515e-01  5.9316190866056162e-01 6.0107350198203846e-01 1.4675175104892613e-01  5.7766895904524052e-01 5.6687315630205781e-01 1.2911641916068792e-01  6.8510708251259766e-01 4.6819835841721075e-01 6.0149228260547649e-01  6.7996711963345879e-01 3.7612306132691620e-01 6.9427846428569862e-01  6.8716080605795082e-01 5.1564614178032786e-01 5.4796854702373810e-01  6.9000075117318194e-01 4.3796621348144615e-01 6.5195725524842163e-01  6.8333142468896302e-01 5.5901359327456968e-01 4.8143534833480467e-01  6.5836126489893942e-01 2.8781478328559873e-01 7.1831452051830647e-01  6.7557087721487130e-01 3.4786475652573834e-01 7.1189149208797675e-01  6.2557532688350537e-01 2.1905215866649422e-01 6.6336273369295040e-01  6.4782864914683858e-01 2.6648160874748844e-01 7.0238086774891662e-01  5.9207308722335816e-01 1.8067969499206585e-01 5.5943530937132624e-01  5.0866060414951353e-01 3.1782991638748759e-01 9.4016461904088605e-02  5.1035617250553589e-01 2.8890163681385489e-01 1.2107811705991089e-01  5.7279938728248070e-01 1.6273082505615993e-01 4.8999421296563983e-01  5.5041746474737197e-01 1.6677509431678184e-01 3.8796883399123067e-01  4.9674336563699784e-01 2.3001938933567997e-01 1.1000265806174889e-01  6.8801442422738257e-01 4.1235185687040327e-01 6.7659600846078904e-01  6.6868927825254754e-01 3.2665713813219938e-01 7.1264177245082594e-01  6.0980032830834563e-01 6.3803427716011940e-01 1.6020109614481831e-01  5.9470890222360384e-01 6.0591272861019019e-01 1.4612745903907662e-01  5.0076940023312078e-01 2.2091733318653012e-01 1.3215009900417080e-01  4.9852403691171138e-01 8.8900393590028659e-02 2.0266249361857025e-01  6.9468971086039100e-01 4.7905864193260322e-01 6.1478194854042711e-01  6.8583832887964102e-01 3.9780958874788902e-01 6.8702240609847798e-01  6.4119262529996857e-01 2.5592271574155429e-01 6.8834432667962409e-01  5.2652208185737404e-01 3.4481786680208448e-01 1.4040762602631965e-01  5.5607720737195798e-01 4.7003550089565732e-01 1.4565759201121431e-01  5.4027441927187614e-01 1.6850016444628280e-01 3.4109004330413623e-01  5.3417444146779880e-01 2.0612852647820848e-01 2.8582237136948047e-01  5.3874696779914211e-01 1.9069764815778806e-01 3.1816213854717895e-01  5.3824527808529865e-01 2.6073507708039212e-01 2.5981567162122382e-01  4.9647017501268592e-01 1.8551348637468029e-01 1.3915449740355951e-01  4.9512768634136994e-01 1.6545620322525617e-01 1.4674704243719150e-01  4.9469834749743202e-01 1.4548861064187318e-01 1.5790324563620489e-01  5.3557040267286171e-01 4.3911417812694714e-01 9.7453207245068771e-02  6.6576961434089843e-01 3.1664882938291378e-01 7.1308276263807990e-01  5.5038983296183208e-01 4.2661997345136199e-01 1.6101410050289827e-01  6.2859023825153892e-01 6.7181600447643020e-01 1.7877217094139441e-01  6.0735964570680034e-01 6.3279689814064322e-01 1.5814801758920835e-01  6.4289606836394175e-01 6.9023753813522737e-01 1.9830862370748586e-01  5.4587711190188526e-01 4.2971013405041208e-01 1.4309505264135908e-01  5.2298012229251012e-01 3.6411959156154461e-01 1.1193448771720704e-01  6.5887928650278527e-01 5.8578445591336925e-01 3.7601900320731224e-01  6.4537013373552199e-01 5.9685157525438670e-01 3.2072037325331365e-01  6.1036877378225463e-01 5.6239653150070190e-01 2.4597949000417374e-01  5.9341553166318506e-01 5.3983985917932886e-01 2.1123555884947545e-01  5.6033445663487158e-01 4.5987394524096603e-01 1.6899415423642722e-01  5.4527238753196727e-01 4.1650609778576053e-01 1.5127510872074132e-01  5.7454410554361168e-01 5.0142269172201304e-01 1.8226758045000016e-01  5.3084583609724056e-01 3.6694357053619708e-01 1.3797172907328026e-01  5.5548418636460717e-01 4.5087601021260493e-01 1.5932381050048519e-01  5.1792198252570909e-01 3.1548252417357009e-01 1.2893952622486049e-01  5.0331870254768118e-01 2.4563358586474338e-01 1.2374235433947232e-01  4.9696468680863354e-01 2.0900908759087317e-01 1.2416784716307884e-01  4.9136330200089756e-01 1.6574804550526825e-01 1.3015842425294663e-01  4.8980553615164141e-01 1.4469938796148168e-01 1.3676593835261791e-01  5.0743647773018841e-01 2.6711062495499344e-01 1.2436238465528705e-01  4.9756532706770384e-01 1.8785783113147739e-01 1.4170975983387016e-01  4.9439518256637865e-01 1.3314908215411281e-01 1.6434256325538468e-01  4.9764364538584255e-01 1.2732470154321454e-01 1.8163790861413137e-01  4.9837594090053972e-01 1.2650432745720722e-01 1.8531572930525769e-01  5.0550382596501675e-01 1.3055366986237457e-01 2.1339355907330551e-01  5.0838021593311644e-01 1.4443534172114972e-01 2.1681726182118324e-01  5.2073278072087670e-01 1.5288297632219050e-01 2.6562676465879925e-01  5.2729937849012942e-01 1.8272024375110521e-01 2.7323424166895377e-01  5.4613460593556895e-01 1.9208961029402954e-01 3.5067929364929690e-01  5.5632786452040828e-01 2.3830239874557038e-01 3.5824641297174081e-01  5.4039293471022964e-01 1.6103956279374179e-01 3.4822020486379845e-01  5.7906673178691459e-01 2.4801019412786771e-01 4.5009248829415888e-01  5.8955414657610816e-01 3.0697116856005630e-01 4.4045355720393187e-01  5.7722017146507354e-01 5.3432032080852210e-01 1.6072182436369015e-01  4.8964008357463518e-01 1.2179903082700001e-01 1.4924003495365740e-01  5.3961890576632132e-01 2.8218404696431104e-01 2.4757125603478369e-01  5.5650228649535549e-01 3.5315066679658774e-01 2.5632045849750040e-01  5.5012274705959940e-01 3.1993998523222061e-01 2.5968064160158721e-01  5.7589421833143239e-01 4.0499492151643346e-01 2.8653800154312686e-01  5.8326294002093027e-01 4.3425010878710785e-01 2.8673747007016726e-01  5.6582590553408496e-01 3.7071593357711730e-01 2.7864379263580785e-01  6.5680580973755709e-01 2.6037022401639864e-01 7.3951505380084614e-01  5.9506257793662787e-01 4.3290802016534530e-01 3.3475902776748717e-01  6.9439645054726695e-01 5.3925811242268562e-01 5.3718251702007291e-01  6.1214828761530315e-01 2.0841294871110971e-01 6.1923938246689647e-01  6.3931863058358507e-01 2.5031496550959170e-01 6.8612946430071853e-01  5.2086504674128831e-01 3.2583102228444394e-01 1.3230938658320063e-01  6.0894598628959051e-01 3.2101622711289718e-01 5.0690728680528963e-01  4.9801996790216080e-01 8.9441607167885490e-02 2.0033077187432419e-01  5.6365433744710780e-01 5.2771384695742729e-01 1.1843565271020777e-01  4.9636088560784503e-01 9.1487501270589466e-02 1.9251159634899564e-01  6.8626445439620354e-01 3.8734918349564007e-01 6.9937547446577653e-01  5.4323208108831433e-01 2.8170017402732167e-01 2.6381367863136063e-01  5.5457291040847234e-01 3.3080013130935199e-01 2.6880425531698510e-01  4.9136181670371903e-01 1.0456913418188407e-01 1.6547065521379586e-01  4.8944623552688815e-01 1.3478275809867166e-01 1.4113492415211906e-01  5.6221390504567825e-01 4.9288820044621484e-01 1.4656916292015607e-01  5.3846446867900633e-01 2.3152798313993694e-01 2.8428340323978812e-01  6.3811095123457939e-01 6.8807597740392901e-01 1.8685864667016175e-01  6.1153468218476958e-01 6.4179633776121514e-01 1.6135553700892122e-01  6.0395782557308597e-01 6.3470765361503190e-01 1.4517327952164047e-01  5.4688653304071155e-01 4.7986340712208725e-01 1.0330656623362898e-01  6.9268573814049916e-01 7.3685885255377015e-01 2.6269288012456654e-01  4.9123848716514940e-01 1.0660492893233930e-01 1.6387116013582848e-01  5.7590423199598595e-01 5.5841082888268556e-01 1.3164638074432397e-01  5.8054862354316517e-01 5.7025118979287082e-01 1.3575553149929315e-01  6.1445972397570536e-01 6.4950876320466944e-01 1.6227743801435493e-01  5.1990283365425738e-01 3.8787544070074981e-01 8.2857065897440879e-02  6.0595110215034464e-01 5.6628341441884067e-01 2.2657371176144386e-01  5.8378572462062917e-01 5.2570566499098870e-01 1.9169532355336699e-01  5.1987876617621720e-01 1.9151631683270262e-01 2.3322444548304300e-01  5.7481452882248352e-01 3.8896569994018432e-01 2.9758198670741348e-01  4.9944914749660985e-01 8.8314399171051258e-02 2.0675196385648198e-01  5.7582999187291850e-01 5.5805494471649364e-01 1.3204304572523184e-01  5.9903705533859719e-01 6.1712155155976489e-01 1.4857240969010324e-01  5.0417366691396970e-01 1.2596286800496290e-01 2.1039730333092760e-01  5.1426844873044342e-01 2.9986377846640760e-01 1.2646529468981410e-01  5.2831423771567365e-01 3.5479249017973263e-01 1.3775893515614890e-01  4.9512319205527994e-01 1.6071130287827806e-01 1.5001307670712810e-01  4.9707895764890242e-01 9.0594086025440113e-02 1.9589259021346095e-01  6.8403774291263830e-01 3.3869515833158120e-01 7.4384958483162134e-01  6.0532110126307814e-01 2.7025780005619054e-01 5.4074047157905802e-01  5.9000466206914715e-01 5.6922360445015974e-01 1.6993478510819812e-01  6.1384784186015173e-01 6.2007134653804585e-01 1.9424516297509128e-01  5.3350391028832733e-01 1.2810297575417348e-01 3.3905350308193216e-01  5.7644820270860286e-01 4.9502280961606254e-01 1.9539123428383365e-01  5.1230885169769258e-01 3.2776838862874380e-01 9.9978896416375196e-02  6.2789106549301221e-01 6.4114116657584863e-01 2.1458930705554052e-01  5.3498388502919880e-01 3.9082125283485264e-01 1.3515126301028657e-01  5.5731233691386073e-01 1.5090355404114900e-01 4.2980948760801335e-01  5.0253452336510485e-01 2.4478397202098415e-01 1.2125783913704836e-01  6.1309291314241088e-01 3.8215565530187345e-01 4.6069316803150601e-01  6.0107076571609952e-01 3.7556566631047084e-01 4.1964584703305036e-01  6.2478083468223189e-01 3.4200396540669498e-01 5.4740805469563247e-01  4.9483465151076922e-01 1.2555447860002467e-01 1.7087889343594201e-01  5.1987237946025389e-01 3.6898518553488763e-01 9.7085412093248960e-02  5.4448074941043878e-01 4.6454947234490879e-01 1.0793842945618690e-01  5.8363981499