<?xml version="1.0"?>
<VTKFile type="UnstructuredGrid"  version="0.1"  >
<UnstructuredGrid>
<Piece  NumberOfPoints="600" NumberOfCells="1069">
<Points>
<DataArray  type="Float64"  NumberOfComponents="3"  format="ascii">239.8 188 0  250.2 180 0  258.2 172.4 0  257 169.4 0  259.9 157.4 0  258.7 150.3 0  261 143.5 0  251.7 144.4 0  250 138.7 0  247 138.1 0  245.2 130.8 0  247.3 126.4 0  242.7 118.6 0  231.2 107.7 0  226 102.4 0  226.5 93.90000000000001 0  224.5 91.19999999999999 0  224.5 84.09999999999999 0  234.5 73.80000000000001 0  228.4 68.90000000000001 0  230 70 0  233.4 68 0  222.7 61.5 0  220.6 45.5 0  223.4 49.40000000000001 0  224 47 0  221.8 43.09999999999999 0  221 38.40000000000001 0  219.5 38.5 0  219.4 41.69999999999999 0  217.1 36.90000000000001 0  209.7 36 0  209.5 31.69999999999999 0  205.1 29.90000000000001 0  201.5 30.40000000000001 0  199.2 38.69999999999999 0  201.8 41.40000000000001 0  194.8 53.80000000000001 0  196.1 57.69999999999999 0  193 59 0  191.4 66.09999999999999 0  193.5 66.5 0  194.1 64.40000000000001 0  195.6 64.69999999999999 0  195.4 72.40000000000001 0  199.5 77.30000000000001 0  197.7 86.90000000000001 0  200.6 87.5 0  201.5 91 0  198 94.80000000000001 0  198.6 100 0  197.3 105.4 0  198 109.5 0  197 112.7 0  198.3 116.1 0  201.3 122 0  207.2 121 0  208.1 126.7 0  205.6 127.9 0  209.1 134.9 0  210.9 144.4 0  210.1 147.9 0  213 148.4 0  215.4 149.3 0  215.1 152.8 0  219.9 159.7 0  220.3 163.2 0  218.7 164.9 0  219.9 166.7 0  221.9 169.7 0  220 170.3 0  224.9 174.7 0  229.8 177.4 0  229.7 181 0  228 172.9 0  239 178 0  240.4 180 0  239 181.5 0  241.2 185.9 0  242.95 187.99 0  241.113414658978 187.995830429654 0  242.142964269982 187.9925620181905 0  243.6619187087475 187.2054164851183 0  244.631513060971 186.1368566403919 0  245.9520480703466 184.6815359886801 0  247.7505449816197 182.6994683581873 0  252.8666666668011 177.466666666539 0  255.5333333336077 174.9333333330727 0  257.9666666666661 165.4000000000025 0  258.9333333333339 161.3999999999974 0  259.3000000000018 153.8500000000108 0  259.849999999995 146.9000000000149 0  256.350000000011 143.9499999999989 0  250.8500000000015 141.5500000000051 0  246.1000000000042 134.450000000017 0  245.0000000000049 122.5000000000082 0  239.8250000000041 115.875000000004 0  236.9500000000083 113.1500000000079 0  234.0750000000041 110.4250000000039 0  228.6000000000041 105.0500000000042 0  226.25 98.15000000000002 0  224.5 87.65000000001388 0  227.8333333333301 80.66666666667 0  231.1666666666644 77.23333333333571 0  232.2500000000014 71.90000000000116 0  230.8999999999995 68.45000000000009 0  225.5500000000108 65.20000000001409 0  222.9333333333329 57.46666666667507 0  223.1666666666663 53.43333333333877 0  218.2500000000016 39.30000000000339 0  213.4000000000277 36.45000000000337 0  200.3500000000025 34.54999999999097 0  199.4666666666726 45.53333333332282 0  197.1333333333385 49.66666666665756 0  193.5499999999978 61.6999999999891 0  193.3999999999962 69.24999999999406 0  197.4499999999954 74.84999999999454 0  198.6000000000007 82.09999999999631 0  199.7500000000014 92.8999999999985 0  198.2999999999997 97.39999999999726 0  197.950000000001 102.699999999996 0  199.7999999999944 119.049999999989 0  204.2499999999946 121.5000000000009 0  207.6499999999987 123.8499999999919 0  207.35 131.4 0  209.9999999999998 139.649999999999 0  217.4999999999938 156.249999999991 0  223.4 172.2 0  234.349999999995 179.5000000000016 0  243.6879031604435 137.0140197666175 0  200.5383884465266 74.3488835611292 0  236.0631303447202 117.0934887033495 0  255.2860706566257 162.4962097513293 0  210.288597171716 124.9641969758756 0  200.5494091764226 101.6938959209836 0  221.0463142825589 155.4583368622661 0  213.2458552033902 137.0182369603261 0  202.5715495252679 76.72215432732189 0  203.3954031521662 88.63888283314805 0  204.2685850489914 91.3771816532193 0  227.6002395557545 108.6285485308707 0  203.628067965887 73.80056467640915 0  205.5882193517793 76.19298591547215 0  219.3893731065793 59.36381842571261 0  222.6962970705901 100.2685345181304 0  206.2147206748961 89.23684943534887 0  224.5717795045128 68.90112930058935 0  207.1505150846513 91.97409496002633 0  206.6973804802006 73.20614062920998 0  209.0198262461606 75.84435446174592 0  204.6828826698789 70.78585325419728 0  244.5505030757118 140.1958289722003 0  241.2713205316759 139.2760911012237 0  242.0887623359319 142.523888210035 0  238.8201809392432 141.5810446831215 0  239.6254755922404 144.8663288044098 0  238.0282380951174 138.3361101328854 0  235.5650201404635 140.6403522599634 0  234.7868703265066 137.3765638391416 0  232.3671992655526 139.7040340002533 0  231.5735594060041 136.4371341666237 0  203.6025996895933 45.13245413868078 0  209.0094500142995 89.77916893533093 0  234.0048963149566 134.0619286436701 0  230.7388584519252 133.0932019642386 0  256.0202376970822 152.4353991158102 0  233.1239077827668 142.9168616681826 0  229.9476468053365 142.0041066209365 0  207.8316386186595 70.1760146256688 0  205.8080150778045 67.77328389450008 0  210.1255397865818 92.58553759086743 0  249.9530000513888 175.7831884132348 0  230.7520925362455 145.2114145624654 0  227.5614746466729 144.2879078440436 0  226.855634298717 141.1029513419209 0  221.109901317114 86.07738557802102 0  221.3898452401857 82.41394785245797 0  233.1906280944642 130.7538222264552 0  229.849944657733 129.8156996791429 0  227.4514186000422 132.1240250470279 0  226.5693510741891 128.7503487535618 0  208.0732626511005 94.86195720558288 0  211.0579654481564 95.54875779444082 0  209.0041892644107 97.86214677695602 0  216.7276956906574 41.503774594868 0  224.4517166451922 143.3327513982825 0  222.7890579510523 161.0597281586643 0  209.0698801997012 67.10609773523754 0  206.9141710660066 64.58868367949086 0  211.5265666272545 70.15591236789595 0  218.2872405225432 83.97244872861398 0  207.7311279855657 86.71297189445447 0  242.9081583239214 145.8040728889821 0  240.4621480942806 148.1601866910276 0  243.7562457682554 149.0907552716282 0  241.3145175595932 151.4726760652338 0  244.57940289053 152.3666461928266 0  242.1615185950008 154.7794567484269 0  238.8718789959482 153.837018554675 0  239.7122407256576 157.1523621063041 0  236.4289375384117 156.2070529629317 0  237.2412111497984 159.5248795948406 0  240.5638486223294 160.4901132255754 0  238.1023772270576 162.8725976094984 0  241.406699334305 163.8359650846702 0  238.9630278156374 166.2175426435888 0  234.7361516891476 161.8928266488476 0  213.124654294145 93.56046727196781 0  212.0434836741439 98.5447165103807 0  209.9504013355788 100.9044854564887 0  213.0958854424699 101.5871381629478 0  210.9302285957408 103.9580876602797 0  214.0010858928389 104.7096094485587 0  211.9141605791952 107.0615795921763 0  214.9890206858068 107.8102538193681 0  212.9269247290344 110.1901972673309 0  216.0786784436673 110.8721476340726 0  209.7617142319936 109.4041944495815 0  213.932211035267 113.2627867337288 0  217.0813395790477 113.941453344218 0  218.441750941724 80.63655841437071 0  242.2412500877879 167.1781012200828 0  229.2280100589433 126.5393356137107 0  225.9203624138538 125.4446005931909 0  223.3571983269889 127.7265579015054 0  222.6136526124249 124.535547281476 0  225.3056527306165 122.1016033222114 0  220.3254947810712 126.7409252226328 0  201.0777098578984 116.3274181811247 0  219.7857338015156 123.3740225787907 0  228.3312248450329 147.5116593523427 0  223.7608055035202 140.2236832285434 0  221.3299816979287 142.3937311365609 0  245.4512147769152 155.7068319139237 0  214.9140854911084 116.3016229600955 0  241.4261562479406 177.9745543740275 0  202.8157779574545 68.56000166221941 0  240.0703975438099 175.788326095019 0  222.1092806876692 145.4935485219417 0  220.9446699547174 129.9892194059113 0  217.7131509102484 129.0121441451285 0  231.966766611991 173.6290727753235 0  244.7035101352062 164.8150950666352 0  215.4589412711449 82.35047797613059 0  218.5358717759109 108.3057574313637 0  210.0910095413371 63.89870618133642 0  207.8879031726656 61.27101234314142 0  219.5945508510063 49.26517889117938 0  204.4640092132492 79.16637174968085 0  219.054165325738 63.24726086273807 0  245.5364828646638 168.1932520030346 0  204.1722248369768 62.21708558088665 0  205.6821920907016 58.50393459316535 0  209.6155639374877 57.86856426712311 0  196.5553895895766 69.81481204083099 0  235.6123608690412 152.8874163252039 0  233.2157615582107 155.2532908181879 0  240.6837858645011 122.4172544901715 0  210.8141135626509 127.8682271622992 0  245.3812170314571 182.2522052029404 0  206.9456715292139 54.99559933887414 0  210.5075513436263 54.0697256538542 0  207.9169085133073 103.1765167571325 0  223.2431750051092 164.070583057325 0  225.7483443677002 162.1151723759482 0  206.0378951001477 96.94148998994152 0  242.6796154699829 175.6597339900036 0  214.6838055972238 146.7252062992904 0  211.9990465678071 115.5576487680909 0  221.4613603554043 78.78973924681317 0  218.3291154698718 77.0769598533563 0  200.3358005877804 107.1120377748188 0  247.4072167499741 149.4171847419639 0  211.6397508657857 39.55684201930068 0  226.8243927196049 72.17619845696734 0  215.354291780634 85.55308818793476 0  236.5600255652378 131.6759521500912 0  226.0129792461303 165.2837912620818 0  218.060680211082 117.0067370946569 0  220.2726382852709 114.6051380114157 0  212.8793579154693 118.3711453694285 0  215.022609143906 99.35520341734289 0  203.0459334752391 85.71272568041367 0  202.8915272398735 55.67723839797077 0  220.5465456567309 139.1747891305704 0  239.6921265383864 169.3260213165692 0  236.6712881821608 168.5826958099534 0  218.0125893802946 141.5012621699478 0  201.3193403438535 110.3399099823547 0  203.3799271438462 107.9393487975089 0  248.1978655115356 165.7601936670729 0  248.8804221900089 169.2105116441819 0  237.1867529048816 147.1869371163321 0  236.7369473929319 176.2832209442509 0  247.3010859001464 162.3677476585113 0  204.3727171343656 110.8209535355564 0  235.7766571132668 128.3537547116865 0  217.8932394506906 150
[...]
<PointData  Vectors="f_12"> 
<DataArray  type="Float64"  Name="f_12"  NumberOfComponents="3" format="ascii">5.0649505686798646e-01 3.0870483262937770e-01 9.3352988938506895e-02  5.5572577120126720e-01 4.8921739117429752e-01 1.2784739327928873e-01  5.9486686607242500e-01 5.9944260372611757e-01 1.5597992814889255e-01  6.2402925599819381e-01 6.3568289855850224e-01 2.0900286558517622e-01  7.3537723251992237e-01 6.7222935553684171e-01 4.4338599699808606e-01  7.5044166964079395e-01 6.0627822640689910e-01 5.6365807920222366e-01  7.5930464142417120e-01 6.1278911292272920e-01 5.6803082330639221e-01  7.0489454537636986e-01 5.1989008582687979e-01 5.8666300735302401e-01  6.4742740693237999e-01 5.6430732918216242e-01 3.7022713059455820e-01  6.1425389006781950e-01 5.5461409851728483e-01 2.6875993237916201e-01  5.1073414615074708e-01 3.3537196591469032e-01 8.9119991908546525e-02  4.9756744234111788e-01 2.8374875467316679e-01 7.8906507166217582e-02  5.4747775398980958e-01 4.5958114695133484e-01 1.2336991157127884e-01  7.3667635926619368e-01 7.0754486236889025e-01 3.9181994094194905e-01  7.6745098577021176e-01 7.3395159186909087e-01 3.9693074965157993e-01  7.6254594370531736e-01 7.7158427422372255e-01 3.3103205057564650e-01  7.6195828027200296e-01 7.7085427302651088e-01 3.3154478066869586e-01  7.5745644200635154e-01 7.2088937678630893e-01 4.0432953179942294e-01  6.9002505627347366e-01 7.5779742874143841e-01 2.2808645118654886e-01  6.9894498685759199e-01 7.3642163666334837e-01 2.7818928601881671e-01  6.9398417315065797e-01 7.4855995061942981e-01 2.4987572372044403e-01  6.8261044226181311e-01 7.5973408594208680e-01 2.0906699113766161e-01  6.6669244734437905e-01 5.6177225723313251e-01 4.3524997283903100e-01  6.2041630378856727e-01 2.2097350032008090e-01 6.4005574438342350e-01  5.7138185741324377e-01 2.3696518098125102e-01 4.2772208682268725e-01  6.2040467848453795e-01 1.9687869567298888e-01 6.6907586816445475e-01  6.4506566141656008e-01 2.4006215851641713e-01 7.1611041040202084e-01  6.9389764922289277e-01 3.0943333705000770e-01 8.0585217623956207e-01  6.9148727908056740e-01 3.0698385322576666e-01 8.0002168280287866e-01  6.6854724920064856e-01 2.7951793597579028e-01 7.5596427081150808e-01  7.1914856864003240e-01 4.3475976456382559e-01 7.2705030747942789e-01  7.0359268195107927e-01 5.8194677404031681e-01 5.0392858820086250e-01  6.7979787279270976e-01 6.9738567044312394e-01 2.8905093648175584e-01  6.6583370169067635e-01 7.1808471136930063e-01 2.2672967628907742e-01  6.6443848523573312e-01 7.1985427838891169e-01 2.2049100190446008e-01  6.8427095630386536e-01 5.5526166355078321e-01 4.9348582156026521e-01  6.4916193786409271e-01 3.6826606645264537e-01 6.0631263594023954e-01  5.0800884231083621e-01 2.1283877643802870e-01 1.6848894830304731e-01  5.1709538443811220e-01 2.8854336705340633e-01 1.4875416441748221e-01  5.2155302419777949e-01 3.3110554528121316e-01 1.3314695404253141e-01  5.6503247206147633e-01 4.8442589469649161e-01 1.6642095555496428e-01  5.6634589433635152e-01 4.8007220498388070e-01 1.7551268225633174e-01  5.4029233937774335e-01 4.0002976847090771e-01 1.4839977143198946e-01  5.5009191697381010e-01 4.2712919787433790e-01 1.6210126775793987e-01  5.8587039926461459e-01 4.5155975726176906e-01 2.7984145027758639e-01  6.1200069074882379e-01 2.6782563126890224e-01 5.6603558286217026e-01  7.3327922146965108e-01 4.1464190734090262e-01 7.8075350285817691e-01  7.4262949044197402e-01 4.7461539043501189e-01 7.2192198255891915e-01  7.6517974014015266e-01 6.7477242318428388e-01 4.8515113817729377e-01  7.5855790368022957e-01 7.6878892209965477e-01 3.3026885361914221e-01  7.5318592569053855e-01 7.8390716056766374e-01 2.9887495267714415e-01  7.4848165471867723e-01 7.8727537358136446e-01 2.8688746580233176e-01  7.4515215675200885e-01 7.8843586732911375e-01 2.8024652134427602e-01  7.4180461478122561e-01 7.9085438155112509e-01 2.7152250353046953e-01  7.3984196648133749e-01 7.9175422506823312e-01 2.6718867943670882e-01  7.3843220713404245e-01 7.9048790285683024e-01 2.6708387464743943e-01  7.3986516677204328e-01 7.7266465840168463e-01 2.9705284208428134e-01  7.0209051177603399e-01 7.5837912287398235e-01 2.5021649236164700e-01  6.9398172080658493e-01 7.5754818188629403e-01 2.3572770819140262e-01  6.3662976980480079e-01 6.9030782968983362e-01 1.8078313096692195e-01  5.5124862786713591e-01 5.0703082651986131e-01 9.5784409784573435e-02  5.4755428809424478e-01 4.9367764405500186e-01 9.4407130292548755e-02  5.6020640344761019e-01 5.2126364117982826e-01 1.1302426280210394e-01  5.9594237657338678e-01 5.7304518887537426e-01 1.8496154824962091e-01  6.3819159267220482e-01 5.8013485277963550e-01 3.2175403947557962e-01  6.3999997470991521e-01 2.7835854509879482e-01 6.6565386865564380e-01  6.3739512277782151e-01 1.9879077448560681e-01 7.2270819023431399e-01  6.4352715702929930e-01 1.9264711485012020e-01 7.4792469249307292e-01  6.5179300157426279e-01 1.9907015251170179e-01 7.6983716078600906e-01  6.6945185526277562e-01 2.2273218665173047e-01 8.0579418903676714e-01  6.6772803800508929e-01 2.1637873970257884e-01 8.0635285963692660e-01  6.9758972326880420e-01 2.8572623610061981e-01 8.2892501042003297e-01  7.3891024681732498e-01 5.3547041932556738e-01 6.4223355762966972e-01  7.4490358331858253e-01 5.8011685136276658e-01 5.9174929276934507e-01  7.0673516337136788e-01 3.3666721200158478e-01 8.0347965785350339e-01  6.6288390386661011e-01 5.2517018700683815e-01 4.5742468346480702e-01  5.8789674214020471e-01 4.8456618208276780e-01 2.4430280642260679e-01  5.6043851645756215e-01 4.4920421987823217e-01 1.8001267758142003e-01  5.1565076213190675e-01 3.3965184416244576e-01 1.0396019370113006e-01  5.1089630644384054e-01 3.2387319289774358e-01 9.8202569730662062e-02  5.0917961395190725e-01 3.1785647353501167e-01 9.6404251271262939e-02  5.1022185237785800e-01 3.2150613819532581e-01 9.7508837443309404e-02  5.1304218708780036e-01 3.3120583953428367e-01 1.0055312197263262e-01  5.1874223187266144e-01 3.5073741038136419e-01 1.0664212614348045e-01  5.2763117314676999e-01 3.8285431099475892e-01 1.1443624651332836e-01  5.4156366359045960e-01 4.3269016939945165e-01 1.2510154200475634e-01  5.6937354009096219e-01 5.3476765060126275e-01 1.3383489680130484e-01  5.8236854013029105e-01 5.7214536048320686e-01 1.4202935521600751e-01  6.7692495759365201e-01 6.7575447450227555e-01 3.1055085599738280e-01  7.1358387294491754e-01 6.8239668707224366e-01 3.8653723002954021e-01  7.4529590866396433e-01 6.3984202558127701e-01 5.0742877321463298e-01  7.5605756222417508e-01 6.0540931985155599e-01 5.7354298827313166e-01  7.4864950641747474e-01 5.8312116899025079e-01 5.9330332743602332e-01  6.6978890681455261e-01 5.4640221839072811e-01 4.5961480286519402e-01  5.5033348650386205e-01 4.5456522006767597e-01 1.3720317858775699e-01  5.1156716356329834e-01 3.3715748016873459e-01 9.0903682155669574e-02  5.9508666918338626e-01 5.7980835735967351e-01 1.7606831869917841e-01  6.5116619204178272e-01 6.6414981314570998e-01 2.5467833661903144e-01  7.0039078535482513e-01 6.9745632880489916e-01 3.3484684340580090e-01  7.5741290523379423e-01 7.1626665543761014e-01 4.1098691352518701e-01  7.6582502118409745e-01 7.5946268975077469e-01 3.5446199729424888e-01  7.6213944912014597e-01 7.5342828009560114e-01 3.5968593643769980e-01  7.3423686472328420e-01 7.2263243952854084e-01 3.6525208348660998e-01  7.0389169857044576e-01 7.4769210335781999e-01 2.7118685908944146e-01  6.9059675148581479e-01 7.5620621939892707e-01 2.3170747737056649e-01  6.8960675133695282e-01 7.5302815000427048e-01 2.3393539266146432e-01  7.0022642383739186e-01 6.7656007149393582e-01 3.6868918186866362e-01  6.1712552713804059e-01 4.2929816229055595e-01 4.2535755090073157e-01  5.8104521366951534e-01 3.0884316558139374e-01 4.0452545964987108e-01  7.0254785791561847e-01 3.7394096968801038e-01 7.5595841106162331e-01  7.1897422143158229e-01 4.8284320653621338e-01 6.6815470486919049e-01  6.8016889699140393e-01 6.7125412023723330e-01 3.2625263433499607e-01  5.5443994432141841e-01 1.8371638713604579e-01 3.9627683944035735e-01  5.1455916209876273e-01 1.7429220152889360e-01 2.2367033295738273e-01  5.2809252487382619e-01 3.5727096180964391e-01 1.3728551665290314e-01  5.7148075030792411e-01 4.8403150231889153e-01 1.9103649938272851e-01  5.9524778285088087e-01 3.6854743097010118e-01 4.0190248031378550e-01  6.8048483292569062e-01 2.9533060057578558e-01 7.7461192668002721e-01  7.6203953988856588e-01 7.4595777087060156e-01 3.7087294942352472e-01  7.5591350650537692e-01 7.7837239083039222e-01 3.1147382767181853e-01  7.5054211919944758e-01 7.8626581633493853e-01 2.9140515036076453e-01  7.3880311597729598e-01 7.9134384683226566e-01 2.6628156104437195e-01  7.3999418567760256e-01 7.8550412164679340e-01 2.7731349921986420e-01  7.2486746878539732e-01 7.6532268949746252e-01 2.8309652007871727e-01  6.7620784098109621e-01 7.4058335438023382e-01 2.1871740095608955e-01  5.8149359164138270e-01 5.8654838360613004e-01 1.2374267226602646e-01  6.5371772171678499e-01 4.6696283677716771e-01 5.1001177511175777e-01  6.8943571666374470e-01 2.6599084860089495e-01 8.2531619681614143e-01  7.3073460858899042e-01 5.5956715648141508e-01 5.9454492153148775e-01  5.7463072442366048e-01 5.1154220147798524e-01 1.7292760700860943e-01  5.9884991416946742e-01 3.2481340854599949e-01 4.6016884040532513e-01  6.2423616586057362e-01 6.3075731722732742e-01 2.1444834601130019e-01  7.0200085551629876e-01 6.6052799326222611e-01 3.9230528364319583e-01  7.1594600631405891e-01 7.6051926493501598e-01 2.7410291905211309e-01  7.5275612643199519e-01 7.8382035349641932e-01 2.9836611435626548e-01  6.5203523542871156e-01 4.1942029089000366e-01 5.5931061247218272e-01  6.0083475143230403e-01 6.2774898181304373e-01 1.4335573160886109e-01  6.1301165101062638e-01 2.5709309123183277e-01 5.8062278371114717e-01  7.5933873675534014e-01 5.8187844617040563e-01 6.0967607975475868e-01  7.6713489390537737e-01 6.8786076832006249e-01 4.6735425675742370e-01  7.4930949171962180e-01 7.1030871794617667e-01 4.0802135443159970e-01  6.0415297559156789e-01 2.9962322461551399e-01 5.0666313165163757e-01  6.2221900663537566e-01 2.5435917664060770e-01 6.1928591476045969e-01  6.3424600344555648e-01 4.7736773819202183e-01 4.3297497561858728e-01  7.6862511259236455e-01 7.4787644553766763e-01 3.7630517929598867e-01  7.6597682510236187e-01 6.3562666359093378e-01 5.4313114650657457e-01  7.0738852830980736e-01 6.9278119582566156e-01 3.5964956532840348e-01  7.6900839238458685e-01 7.1355847894542790e-01 4.3057455591291532e-01  6.1699083091901463e-01 2.9214268485891159e-01 5.6497307736236280e-01  6.4613384989345524e-01 2.7515951043590992e-01 6.8806358016594282e-01  6.0511957713695275e-01 3.6155226333016927e-01 4.4922659125121284e-01  6.2017068186724267e-01 5.6391082874317133e-01 2.7946472288869006e-01  5.9126876022096042e-01 5.4956858080482129e-01 1.9442176705428699e-01  6.3271631195353883e-01 5.7004081997754130e-01 3.1508534228792684e-01  6.0893332769601261e-01 5.7730276421957116e-01 2.2608630816848796e-01  6.4494417273649585e-01 5.5978664725713112e-01 3.6819202036958726e-01  5.6958255472894492e-01 5.2627268603784227e-01 1.4122279937144711e-01  5.8786686298927326e-01 5.6674890509967768e-01 1.6482649867400445e-01  5.5695462315064892e-01 5.0998836968596672e-01 1.1237678703684946e-01  5.7210340611791821e-01 5.4991221936858281e-01 1.2753542626560496e-01  5.5491804658432775e-01 5.1419818993463340e-01 1.0177268666167387e-01  5.8724327430600853e-01 2.2087556449542822e-01 5.0741685730823616e-01  7.6972608036173906e-01 6.7928083675766437e-01 4.8408178526874762e-01  5.4575695895729148e-01 4.8130419453989537e-01 9.8631878644251256e-02  5.6137939542187865e-01 5.3019534681583080e-01 1.0918505154777719e-01  7.4410064727990333e-01 6.0009893313473173e-01 5.6203029347239264e-01  6.0594287781032719e-01 5.9202097551595423e-01 1.9951263974419964e-01  5.8755393818174262e-01 5.7972645564444680e-01 1.5048400187176264e-01  6.2153409337805454e-01 3.5518762313273416e-01 5.1948956299542781e-01  6.0684973790785579e-01 4.1778510087732135e-01 3.9702498153428845e-01  7.6954054645020376e-01 7.3551393328206982e-01 3.9704822516803689e-01  5.8220017656506085e-01 5.4779811934869127e-01 1.6544489852238314e-01  6.2303910835882848e-01 5.9881649165747652e-01 2.4905051861489122e-01  6.0289834819113575e-01 5.9736142813695325e-01 1.8343675902817064e-01  5.7374692393249116e-01 5.6278308806766497e-01 1.2090776866472723e-01  7.6386429905014019e-01 7.3068872136863339e-01 3.9771983843561914e-01  7.5859641260994359e-01 6.8843413828367739e-01 4.5545067850488424e-01  5.5626162877507879e-01 5.0739280582530577e-01 1.1197861833078543e-01  5.8690022426623578e-01 5.8619759307893293e-01 1.4109339126757581e-01  5.8627354494570627e-01 5.9222889974136972e-01 1.3301665556061587e-01  6.2209577338982480e-01 6.5299904027395617e-01 1.8110907548960339e-01  7.6690872478829497e-01 7.5246473939597747e-01 3.6697890465361382e-01  7.6774436294618742e-01 7.5803329561195010e-01 3.5915055430868897e-01  7.6570973353165728e-01 7.6326208951775576e-01 3.4820820377589945e-01  6.8093299335180557e-01 3.2239894957524379e-01 7.5117284896476544e-01  5.8382332608479082e-01 5.7881882724468259e-01 1.3894631170532945e-01  6.3290710155078389e-01 2.2099015313461859e-01 6.9004729263698772e-01  6.2588996009461051e-01 4.1857703444566841e-01 4.6800355825779294e-01  6.0187414306344333e-01 4.4891626584938232e-01 3.4407753768410526e-01  6.5050795575852027e-01 3.7056657698561035e-01 6.0787063190699464e-01  7.6410647282348787e-01 6.7052784430372414e-01 4.8989286734125842e-01  7.5831798479266910e-01 5.6561661653856565e-01 6.3095344935145592e-01  6.6170660006712512e-01 5.1771211913579918e-01 4.7299914415694200e-01  6.6288997587731691e-01 4.7278196260513905e-01 5.3206062138077093e-01  6.7347112191715652e-01 4.3221542637914573e-01 6.1224971208699375e-01  6.6372762877946301e-01 3.7199631528507626e-01 6.5074316946655619e-01  6.7734305698163766e-01 3.7115982410949144e-01 6.9298573654269613e-01  6.6223960747185473e-01 3.1263972829035869e-01 7.0833482386745872e-01  6.5093811721893557e-01 3.1117960961687374e-01 6.7288017640221542e-01  6.4864048372154059e-01 2.6468553482676005e-01 7.0991213462117042e-01  6.3869223598542901e-01 2.5945886382577643e-01 6.8014854095803456e-01  6.4058470242637300e-01 2.3240038913983341e-01 7.1053652806122714e-01  6.5942620759054393e-01 2.7537471956525944e-01 7.3523504206876567e-01  6.5748249637393374e-01 2.5923226687806444e-01 7.4328585546038239e-01  6.7598318768390675e-01 3.3264163872175545e-01 7.2953201346043495e-01  6.7785844136879869e-01 3.2864432336808636e-01 7.3851991033537701e-01  6.4074150599867274e-01 2.1749883522665861e-01 7.2269975640720041e-01  7.6852062197150006e-01 7.5336255372639871e-01 3.6759545012970513e-01  7.6810468824270695e-01 7.5890609302192358e-01 3.5808458767050938e-01  7.6687217607330438e-01 7.5906698901351133e-01 3.5622278963772952e-01  7.7033026505779945e-01 7.4985147943088659e-01 3.7510600938549910e-01  7.6897515037527120e-01 7.4994787957373021e-01 3.7324765069555194e-01  7.7230383445324668e-01 7.3911641649618054e-01 3.9445846714593347e-01  7.7017245512909305e-01 7.4169188547708520e-01 3.8778160235249814e-01  7.7248131987583857e-01 7.3074984464684578e-01 4.0787727285227859e-01  7.6916469525750508e-01 7.3680435075547157e-01 3.9427245728887411e-01  7.6971272066475172e-01 7.2602459390295593e-01 4.1192929902414444e-01  7.6544732287413630e-01 7.4987779031014934e-01 3.6891958142568737e-01  7.6512206875950217e-01 7.3586935886639604e-01 3.9064966628422687e-01  7.6313589079996313e-01 7.2585537183482118e-01 4.0374449719267985e-01  7.5423690819326006e-01 6.0874217317398727e-01 5.6560232942256006e-01  6.8518629954822086e-01 4.1822597087684754e-01 6.6155627414537976e-01  6.1968093551428327e-01 6.4145110932065230e-01 1.8706434020550619e-01  6.5836293240234856e-01 6.9294594236915019e-01 2.3664826579399156e-01  6.5489015667109651e-01 6.9694732689523442e-01 2.2194490934972697e-01  6.8897360429056875e-01 7.1974129602489623e-01 2.7694827105933223e-01  6.9137700441874772e-01 7.1123262742477567e-01 2.9453773246013643e-01  6.8107053176863963e-01 7.2261324584117659e-01 2.5438269804521763e-01  7.4073198669928686e-01 7.8966605892169217e-01 2.7179491016864460e-01  7.1154977152827636e-01 7.3329937081480256e-01 3.0613463933870017e-01  6.3698181692770206e-01 5.8529432053498598e-01 3.1129659717993069e-01  5.6714392740545982e-01 5.5377599958250245e-01 1.0738930800751470e-01  5.7021825346538946e-01 5.5754984276080932e-01 1.1412826562832730e-01  6.8393890490738574e-01 3.5941362602605448e-01 7.2496055757389311e-01  7.5732481322291501e-01 7.3802405644879376e-01 3.7681946068649280e-01  6.2029729380460019e-01 5.1928197721587654e-01 3.2553475496494166e-01  5.9414738805430922e-01 4.2673449070223024e-01 3.3804281920956164e-01  6.6366923465242511e-01 5.2092048130523305e-01 4.6982542600866961e-01  5.9375008470839330e-01 5.8751942242823341e-01 1.6333281358845464e-01  6.4579619694596579e-01 6.9268916026417604e-01 2.0248642939270015e-01  6.7000540973105738e-01 7.2083578870106713e-01 2.2992427877964491e-01  7.1890174786417949e-01 4.3011177501417502e-01 7.3052807783642415e-01  6.8838602235195923e-01 4.3424183418915230e-01 6.5209386314657447e-01  7.5553887191412816e-01 5.7629105871313069e-01 6.1249663440279289e-01  7.7161103689382093e-01 7.2148607951011323e-01 4.2139467048258689e-01  6.1993215776545574e-01 4.5522201368614967e-01 4.0524241421798057e-01  5.8749397826973804e-01 4.3353835372862282e-01 3.0392403332786461e-01  5.7996700442919225e-01 2.3009408429765482e-01 4.6891208524495598e-01  6.4486706983038533e-01 2.5633119900152579e-01 6.9814193975205729e-01  6.7036667826246588e-01 5.5169854813341324e-01 4.5821117445469289e-01  6.7873565422665039e-01 5.1564876769152657e-01 5.2479605875357316e-01  5.6992308302840367e-01 4.2756417897860943e-01 2.4000851867163403e-01  5.5469515136907155e-01 3.6464618020153000e-01 2.3821930858815768e-01  5.7340706454872603e-01 3.7901444488939495e-01 3.0247553469461536e-01  5.7964028334185869e-01 4.6664709164605755e-01 2.4002347573926905e-01  6.5003941349768524e-01 3.4728742928956291e-01 6.3246878596145584e-01  6.3937609294743469e-01 2.8699511027194263e-01 6.5641134372940302e-01  5.3538752209556728e-01 4.2057217261931890e-01 1.1184687933705215e-01  6.9488434074496952e-01 7.5150689161425999e-01 2.4518612678459489e-01  5.4141369582694565e-01 4.2299433018644045e-01 1.3223669642520344e-01  5.4405904907903913e-01 2.8904176584600655e-01 2.6124294844982876e-01  5.5725764236595210e-01 2.8934541467166647e-01 3.1848451147718126e-01  7.6409013875723641e-01 7.6189200813837044e-01 3.4816024539057078e-01  6.3965840832805188e-01 1.9532207316431724e-01 7.3309613786669781e-01  6.3189455047971843e-01 1.9931182241245943e-01 7.0412342060646127e-01  7.6314343343138491e-01 7.6502586597989231e-01 3.4218119581620582e-01  6.3714460685778251e-01 5.3660490934837868e-01 3.6680428383472508e-01  5.6645216949265287e-01 5.3602284951850021e-01 1.2098168283428466e-01  7.5831644954674560e-01 7.4813022067921353e-01 3.6232913095628366e-01  7.4750844103226632e-01 6.4837890424100331e-01 4.9801575562847028e-01  7.3703859300819918e-01 5.4811909563835248e-01 6.1984720971528739e-01  7.4882504147860074e-01 7.8502603749996902e-01 2.9089933718397676e-01  6.9195869631578288e-01 4.4081372490646553e-01 6.5411488580361787e-01  7.0118527256048568e-01 4.3419538454355039e-01 6.8608766447216774e-01  7.0780609871493771e-01 7.2724603052385550e-01 3.0953925410083566e-01  7.6661141073420591e-01 6.5709750567979253e-01 5.1313197153223788e-01  5.3506422575546742e-01 4.3842538777181361e-01 9.6730224410277912e-02  6.4879988967312008e-01 2.0348761035476526e-01 7.5745800828579835e-01  7.5202326731287239e-01 7.2893174601418431e-01 3.8336868671518515e-01  7.5608653709133589e-01 7.1820365363708116e-01 4.0587458659267023e-01  7.4989014668397491e-01 7.5031730610708303e-01 3.4697024269422810e-01  7.6970185773532251e-01 7.5380200684720189e-01 3.6812487049518960e-01  7.3485833428215430e-01 4.4783696672202600e-01 7.3946876369445858e-01  5.2783293779818452e-01 2.7315048086691929e-01 2.0502991436217954e-01  5.6950261614