<?xml version="1.0"?>
<VTKFile type="UnstructuredGrid"  version="0.1"  >
<UnstructuredGrid>
<Piece  NumberOfPoints="600" NumberOfCells="1069">
<Points>
<DataArray  type="Float64"  NumberOfComponents="3"  format="ascii">239.8 188 0  250.2 180 0  258.2 172.4 0  257 169.4 0  259.9 157.4 0  258.7 150.3 0  261 143.5 0  251.7 144.4 0  250 138.7 0  247 138.1 0  245.2 130.8 0  247.3 126.4 0  242.7 118.6 0  231.2 107.7 0  226 102.4 0  226.5 93.90000000000001 0  224.5 91.19999999999999 0  224.5 84.09999999999999 0  234.5 73.80000000000001 0  228.4 68.90000000000001 0  230 70 0  233.4 68 0  222.7 61.5 0  220.6 45.5 0  223.4 49.40000000000001 0  224 47 0  221.8 43.09999999999999 0  221 38.40000000000001 0  219.5 38.5 0  219.4 41.69999999999999 0  217.1 36.90000000000001 0  209.7 36 0  209.5 31.69999999999999 0  205.1 29.90000000000001 0  201.5 30.40000000000001 0  199.2 38.69999999999999 0  201.8 41.40000000000001 0  194.8 53.80000000000001 0  196.1 57.69999999999999 0  193 59 0  191.4 66.09999999999999 0  193.5 66.5 0  194.1 64.40000000000001 0  195.6 64.69999999999999 0  195.4 72.40000000000001 0  199.5 77.30000000000001 0  197.7 86.90000000000001 0  200.6 87.5 0  201.5 91 0  198 94.80000000000001 0  198.6 100 0  197.3 105.4 0  198 109.5 0  197 112.7 0  198.3 116.1 0  201.3 122 0  207.2 121 0  208.1 126.7 0  205.6 127.9 0  209.1 134.9 0  210.9 144.4 0  210.1 147.9 0  213 148.4 0  215.4 149.3 0  215.1 152.8 0  219.9 159.7 0  220.3 163.2 0  218.7 164.9 0  219.9 166.7 0  221.9 169.7 0  220 170.3 0  224.9 174.7 0  229.8 177.4 0  229.7 181 0  228 172.9 0  239 178 0  240.4 180 0  239 181.5 0  241.2 185.9 0  242.95 187.99 0  241.113414658978 187.995830429654 0  242.142964269982 187.9925620181905 0  243.6619187087475 187.2054164851183 0  244.631513060971 186.1368566403919 0  245.9520480703466 184.6815359886801 0  247.7505449816197 182.6994683581873 0  252.8666666668011 177.466666666539 0  255.5333333336077 174.9333333330727 0  257.9666666666661 165.4000000000025 0  258.9333333333339 161.3999999999974 0  259.3000000000018 153.8500000000108 0  259.849999999995 146.9000000000149 0  256.350000000011 143.9499999999989 0  250.8500000000015 141.5500000000051 0  246.1000000000042 134.450000000017 0  245.0000000000049 122.5000000000082 0  239.8250000000041 115.875000000004 0  236.9500000000083 113.1500000000079 0  234.0750000000041 110.4250000000039 0  228.6000000000041 105.0500000000042 0  226.25 98.15000000000002 0  224.5 87.65000000001388 0  227.8333333333301 80.66666666667 0  231.1666666666644 77.23333333333571 0  232.2500000000014 71.90000000000116 0  230.8999999999995 68.45000000000009 0  225.5500000000108 65.20000000001409 0  222.9333333333329 57.46666666667507 0  223.1666666666663 53.43333333333877 0  218.2500000000016 39.30000000000339 0  213.4000000000277 36.45000000000337 0  200.3500000000025 34.54999999999097 0  199.4666666666726 45.53333333332282 0  197.1333333333385 49.66666666665756 0  193.5499999999978 61.6999999999891 0  193.3999999999962 69.24999999999406 0  197.4499999999954 74.84999999999454 0  198.6000000000007 82.09999999999631 0  199.7500000000014 92.8999999999985 0  198.2999999999997 97.39999999999726 0  197.950000000001 102.699999999996 0  199.7999999999944 119.049999999989 0  204.2499999999946 121.5000000000009 0  207.6499999999987 123.8499999999919 0  207.35 131.4 0  209.9999999999998 139.649999999999 0  217.4999999999938 156.249999999991 0  223.4 172.2 0  234.349999999995 179.5000000000016 0  243.6879031604435 137.0140197666175 0  200.5383884465266 74.3488835611292 0  236.0631303447202 117.0934887033495 0  255.2860706566257 162.4962097513293 0  210.288597171716 124.9641969758756 0  200.5494091764226 101.6938959209836 0  221.0463142825589 155.4583368622661 0  213.2458552033902 137.0182369603261 0  202.5715495252679 76.72215432732189 0  203.3954031521662 88.63888283314805 0  204.2685850489914 91.3771816532193 0  227.6002395557545 108.6285485308707 0  203.628067965887 73.80056467640915 0  205.5882193517793 76.19298591547215 0  219.3893731065793 59.36381842571261 0  222.6962970705901 100.2685345181304 0  206.2147206748961 89.23684943534887 0  224.5717795045128 68.90112930058935 0  207.1505150846513 91.97409496002633 0  206.6973804802006 73.20614062920998 0  209.0198262461606 75.84435446174592 0  204.6828826698789 70.78585325419728 0  244.5505030757118 140.1958289722003 0  241.2713205316759 139.2760911012237 0  242.0887623359319 142.523888210035 0  238.8201809392432 141.5810446831215 0  239.6254755922404 144.8663288044098 0  238.0282380951174 138.3361101328854 0  235.5650201404635 140.6403522599634 0  234.7868703265066 137.3765638391416 0  232.3671992655526 139.7040340002533 0  231.5735594060041 136.4371341666237 0  203.6025996895933 45.13245413868078 0  209.0094500142995 89.77916893533093 0  234.0048963149566 134.0619286436701 0  230.7388584519252 133.0932019642386 0  256.0202376970822 152.4353991158102 0  233.1239077827668 142.9168616681826 0  229.9476468053365 142.0041066209365 0  207.8316386186595 70.1760146256688 0  205.8080150778045 67.77328389450008 0  210.1255397865818 92.58553759086743 0  249.9530000513888 175.7831884132348 0  230.7520925362455 145.2114145624654 0  227.5614746466729 144.2879078440436 0  226.855634298717 141.1029513419209 0  221.109901317114 86.07738557802102 0  221.3898452401857 82.41394785245797 0  233.1906280944642 130.7538222264552 0  229.849944657733 129.8156996791429 0  227.4514186000422 132.1240250470279 0  226.5693510741891 128.7503487535618 0  208.0732626511005 94.86195720558288 0  211.0579654481564 95.54875779444082 0  209.0041892644107 97.86214677695602 0  216.7276956906574 41.503774594868 0  224.4517166451922 143.3327513982825 0  222.7890579510523 161.0597281586643 0  209.0698801997012 67.10609773523754 0  206.9141710660066 64.58868367949086 0  211.5265666272545 70.15591236789595 0  218.2872405225432 83.97244872861398 0  207.7311279855657 86.71297189445447 0  242.9081583239214 145.8040728889821 0  240.4621480942806 148.1601866910276 0  243.7562457682554 149.0907552716282 0  241.3145175595932 151.4726760652338 0  244.57940289053 152.3666461928266 0  242.1615185950008 154.7794567484269 0  238.8718789959482 153.837018554675 0  239.7122407256576 157.1523621063041 0  236.4289375384117 156.2070529629317 0  237.2412111497984 159.5248795948406 0  240.5638486223294 160.4901132255754 0  238.1023772270576 162.8725976094984 0  241.406699334305 163.8359650846702 0  238.9630278156374 166.2175426435888 0  234.7361516891476 161.8928266488476 0  213.124654294145 93.56046727196781 0  212.0434836741439 98.5447165103807 0  209.9504013355788 100.9044854564887 0  213.0958854424699 101.5871381629478 0  210.9302285957408 103.9580876602797 0  214.0010858928389 104.7096094485587 0  211.9141605791952 107.0615795921763 0  214.9890206858068 107.8102538193681 0  212.9269247290344 110.1901972673309 0  216.0786784436673 110.8721476340726 0  209.7617142319936 109.4041944495815 0  213.932211035267 113.2627867337288 0  217.0813395790477 113.941453344218 0  218.441750941724 80.63655841437071 0  242.2412500877879 167.1781012200828 0  229.2280100589433 126.5393356137107 0  225.9203624138538 125.4446005931909 0  223.3571983269889 127.7265579015054 0  222.6136526124249 124.535547281476 0  225.3056527306165 122.1016033222114 0  220.3254947810712 126.7409252226328 0  201.0777098578984 116.3274181811247 0  219.7857338015156 123.3740225787907 0  228.3312248450329 147.5116593523427 0  223.7608055035202 140.2236832285434 0  221.3299816979287 142.3937311365609 0  245.4512147769152 155.7068319139237 0  214.9140854911084 116.3016229600955 0  241.4261562479406 177.9745543740275 0  202.8157779574545 68.56000166221941 0  240.0703975438099 175.788326095019 0  222.1092806876692 145.4935485219417 0  220.9446699547174 129.9892194059113 0  217.7131509102484 129.0121441451285 0  231.966766611991 173.6290727753235 0  244.7035101352062 164.8150950666352 0  215.4589412711449 82.35047797613059 0  218.5358717759109 108.3057574313637 0  210.0910095413371 63.89870618133642 0  207.8879031726656 61.27101234314142 0  219.5945508510063 49.26517889117938 0  204.4640092132492 79.16637174968085 0  219.054165325738 63.24726086273807 0  245.5364828646638 168.1932520030346 0  204.1722248369768 62.21708558088665 0  205.6821920907016 58.50393459316535 0  209.6155639374877 57.86856426712311 0  196.5553895895766 69.81481204083099 0  235.6123608690412 152.8874163252039 0  233.2157615582107 155.2532908181879 0  240.6837858645011 122.4172544901715 0  210.8141135626509 127.8682271622992 0  245.3812170314571 182.2522052029404 0  206.9456715292139 54.99559933887414 0  210.5075513436263 54.0697256538542 0  207.9169085133073 103.1765167571325 0  223.2431750051092 164.070583057325 0  225.7483443677002 162.1151723759482 0  206.0378951001477 96.94148998994152 0  242.6796154699829 175.6597339900036 0  214.6838055972238 146.7252062992904 0  211.9990465678071 115.5576487680909 0  221.4613603554043 78.78973924681317 0  218.3291154698718 77.0769598533563 0  200.3358005877804 107.1120377748188 0  247.4072167499741 149.4171847419639 0  211.6397508657857 39.55684201930068 0  226.8243927196049 72.17619845696734 0  215.354291780634 85.55308818793476 0  236.5600255652378 131.6759521500912 0  226.0129792461303 165.2837912620818 0  218.060680211082 117.0067370946569 0  220.2726382852709 114.6051380114157 0  212.8793579154693 118.3711453694285 0  215.022609143906 99.35520341734289 0  203.0459334752391 85.71272568041367 0  202.8915272398735 55.67723839797077 0  220.5465456567309 139.1747891305704 0  239.6921265383864 169.3260213165692 0  236.6712881821608 168.5826958099534 0  218.0125893802946 141.5012621699478 0  201.3193403438535 110.3399099823547 0  203.3799271438462 107.9393487975089 0  248.1978655115356 165.7601936670729 0  248.8804221900089 169.2105116441819 0  237.1867529048816 147.1869371163321 0  236.7369473929319 176.2832209442509 0  247.3010859001464 162.3677476585113 0  204.3727171343656 110.8209535355564 0  235.7766571132668 128.3537547116865 0  217.8932394506906 150
[...]
<PointData  Vectors="f_12"> 
<DataArray  type="Float64"  Name="f_12"  NumberOfComponents="3" format="ascii">5.0793812651639447e-01 3.1945042444931981e-01 9.0990448163895163e-02  5.6647836776298599e-01 5.3819318404697880e-01 1.1988942169616151e-01  5.9877261973027041e-01 6.4415199303279791e-01 1.1962112251207459e-01  6.0402888230169183e-01 6.5711726444621332e-01 1.2172727448902521e-01  5.9723308091145799e-01 6.4981137142113821e-01 1.0832930945208004e-01  5.8085632562071754e-01 6.1018295432456637e-01 9.7362041333685700e-02  5.7254142005507336e-01 5.8825790053301985e-01 9.1931699661300353e-02  5.7282384647370477e-01 5.8699555615583876e-01 9.3983987689438608e-02  5.6114810961603712e-01 5.4948946617435301e-01 9.0483397797771842e-02  5.5396603830634072e-01 5.2427203052927807e-01 8.8922001056805117e-02  5.2188145268980757e-01 4.0091174598333001e-01 7.9768182943805430e-02  5.1117728684189156e-01 3.5587238674037996e-01 7.5946684204668699e-02  5.0138732801205244e-01 3.1120604076184638e-01 7.3289650832401493e-02  5.4369203975539449e-01 4.7540454217175532e-01 9.5698184238392520e-02  6.1972505768038122e-01 6.6726823126678958e-01 1.5692654121451005e-01  7.0426710219016886e-01 7.5241412984931122e-01 2.6380358060117987e-01  7.2413361863858317e-01 7.4300062109531018e-01 3.1575095464504288e-01  7.3901402988283904e-01 6.5317325971698581e-01 4.7745144083570168e-01  6.4333179857848477e-01 6.7863222062666084e-01 2.1680098617415133e-01  6.2836760068817932e-01 6.4417797209112071e-01 2.1478146472160800e-01  6.3128328484658780e-01 6.5878980582226954e-01 2.0557071068219296e-01  6.1757821781184541e-01 6.5919796522753293e-01 1.6319987918916493e-01  5.5527833550226335e-01 3.5704891432122027e-01 2.4851712190641773e-01  7.4051297975713271e-01 4.2283557880560035e-01 7.7878889486054581e-01  6.2333562030984235e-01 1.6789682568066489e-01 6.9945075194289141e-01  7.5890384677403544e-01 4.6992031774509879e-01 7.5587856640108708e-01  7.6616429356097993e-01 5.1671627035536671e-01 7.0577892755787519e-01  7.8943389017386500e-01 6.3642477471898629e-01 5.7221272201190010e-01  7.8796523242352956e-01 6.2992658048211614e-01 5.7871888263294036e-01  7.7718849197129991e-01 5.7665311416413501e-01 6.4007496855752621e-01  7.8743403523107680e-01 6.8480521502586300e-01 4.9586826753149216e-01  7.8128940139017677e-01 7.3601202581999292e-01 4.0967608473767780e-01  7.7529758327061560e-01 7.6253354940642259e-01 3.6075938290944448e-01  7.7342036424765970e-01 7.6738724879259790e-01 3.5080522915605700e-01  7.7325568300299685e-01 7.6784336969560596e-01 3.4989418547042672e-01  7.8021559213506497e-01 7.2976747407024301e-01 4.1822007248413567e-01  7.8080700448452389e-01 6.5457796709691873e-01 5.3562312383620159e-01  5.8482042930545297e-01 1.3010807969211310e-01 5.6035757111210294e-01  5.3539919488048127e-01 1.3794519624247839e-01 3.3619988428360875e-01  5.1493070081085868e-01 1.5329959774542623e-01 2.3806148481443584e-01  5.4507718344022071e-01 3.7004211558873989e-01 1.9421596036586961e-01  5.4849263826436845e-01 3.7106262538363660e-01 2.0687006829484447e-01  5.2223295641030354e-01 2.2710596632243923e-01 2.1599251533428013e-01  5.3115864115311850e-01 2.7081664666320499e-01 2.1900669565967634e-01  5.9589583707583305e-01 4.6276529791127446e-01 3.0510818167138437e-01  6.9016733409235997e-01 5.9378734807325995e-01 4.5478075421722713e-01  7.1526418222701704e-01 7.5989704460554897e-01 2.7494744298139101e-01  7.0788783385666076e-01 7.5429776791701708e-01 2.6855908016106306e-01  6.6678631909304242e-01 7.3509679479300982e-01 2.0115607782635664e-01  6.1586468329148347e-01 6.7374771594455263e-01 1.3874316552176016e-01  5.8049476750103202e-01 5.9403668128708442e-01 1.1166414787309915e-01  5.4253030861529461e-01 4.7824388152320418e-01 8.9617550123128331e-02  5.2254304125262685e-01 4.0200749759132487e-01 8.1271117350315267e-02  5.1117314320179186e-01 3.5447703103395833e-01 7.6908310985781089e-02  5.0438345211623981e-01 3.2397339392278085e-01 7.4886682398593321e-02  4.9783633379600561e-01 2.9237839711356595e-01 7.3675769786447770e-02  4.9861928794842170e-01 2.9245099404240377e-01 7.6170976959405792e-02  4.9001639845964368e-01 2.4317206593740257e-01 7.8144908400756011e-02  4.8859246774572307e-01 2.3464255644742243e-01 7.8538573149723651e-02  4.8906319341056725e-01 2.3812612264945268e-01 7.8033062290773447e-02  4.9834517484798713e-01 2.9150333721485244e-01 7.5862761680634425e-02  5.0036565586981607e-01 3.0258217060713388e-01 7.5476975444142197e-02  5.0307432893191439e-01 3.1531570268679593e-01 7.6141686281481477e-02  5.1137160814114146e-01 3.5450323028995484e-01 7.7428000214036341e-02  5.2030096184535002e-01 3.9592436131981223e-01 7.8164912983450824e-02  5.4256298404555803e-01 4.8622786017995023e-01 8.3130471126243458e-02  5.4961652193742727e-01 5.1307473853566421e-01 8.4254757081793280e-02  5.5040984986987462e-01 5.1657916961464312e-01 8.3918233224794331e-02  5.5205101490810604e-01 5.2218999217912709e-01 8.4547886235922548e-02  5.5542376017498274e-01 5.3325006158090993e-01 8.6112160319181313e-02  5.5385266767586427e-01 5.2848281087389382e-01 8.5095471141962892e-02  5.6225960100212291e-01 5.5450965558149168e-01 8.9825094523902624e-02  5.7558645484755133e-01 5.9120858851239444e-01 9.9254155671078204e-02  5.7413365806144212e-01 5.8801947813111222e-01 9.7631562539188005e-02  5.7038215633293288e-01 5.7689745162294548e-01 9.5752047772746054e-02  5.8165502998259344e-01 5.8254252912749971e-01 1.2760132949426339e-01  5.5560512523846395e-01 4.9106329082214739e-01 1.2346974409361904e-01  5.4189207590761812e-01 4.4333135750082509e-01 1.1719574157439772e-01  5.1515429785537659e-01 3.4701069667358769e-01 9.6837463048102077e-02  5.1178577905428424e-01 3.3428390703584143e-01 9.3963121356822832e-02  5.1013998434907448e-01 3.2789145825913357e-01 9.2747234178273935e-02  5.1111156013223435e-01 3.3165994548643524e-01 9.3479777369779110e-02  5.1374672307308955e-01 3.4183425517116828e-01 9.5412897402045865e-02  5.1910244147341555e-01 3.6237855898101246e-01 9.9255478735315428e-02  5.2881005608972331e-01 3.9956298186663292e-01 1.0547724228108878e-01  5.4523537958103707e-01 4.6110236110156871e-01 1.1396824376103519e-01  5.8344356973672751e-01 5.9564939843373388e-01 1.2099281146772381e-01  5.9387135259785562e-01 6.2930735502476198e-01 1.2000541551308688e-01  6.0835311988389562e-01 6.7013806731157100e-01 1.2038882623115933e-01  6.0465022588782980e-01 6.6496558071718814e-01 1.1474975046242947e-01  5.8997103588707500e-01 6.3295772089326030e-01 1.0327717555353040e-01  5.7423840347778454e-01 5.9280001011536909e-01 9.3064766554793121e-02  5.7361723345525195e-01 5.9094967379290075e-01 9.2838686969061598e-02  5.6595617031188628e-01 5.6536551811107050e-01 9.1822244741781425e-02  5.3774221347607887e-01 4.6412795645445043e-01 8.4729961275415447e-02  5.0553491157610675e-01 3.3048400564802421e-01 7.4347143621529943e-02  5.0176548538318710e-01 3.1279373996037074e-01 7.3512015169098999e-02  5.0774845611165886e-01 3.3889456566900383e-01 7.6056863268883418e-02  5.2137217787686108e-01 3.9444019357173765e-01 8.2789819568817577e-02  5.7453632207676886e-01 5.6773418697715894e-01 1.1777322465415677e-01  6.7307266235042595e-01 7.3833101474254514e-01 2.1445757479771496e-01  7.4203734252603881e-01 7.0598449358098336e-01 4.0355829440605162e-01  7.0577780033323290e-01 6.3443485314320691e-01 4.3732150878777931e-01  6.6385643554439411e-01 6.6923227153661990e-01 2.8568941692665079e-01  6.4034788325282299e-01 6.7557612893907237e-01 2.1218429405241393e-01  6.2590859240934404e-01 6.5904354455948455e-01 1.8886719389745091e-01  5.9968240860758182e-01 5.4961924161161224e-01 2.2872244880591977e-01  5.3781518157515829e-01 1.9791444701927305e-01 3.0676012375930611e-01  5.6689048093752281e-01 1.4776458835284309e-01 4.6945834800236835e-01  7.8526369839860966e-01 6.5016232963339826e-01 5.4531395433472862e-01  7.8618415823765997e-01 7.0572197610987830e-01 4.6240667018815923e-01  7.7624176916125576e-01 7.5746254847088557e-01 3.6998113123945103e-01  7.4660581966382933e-01 4.2267051323328031e-01 7.9401978830508191e-01  6.6342347643715605e-01 2.0740938463723679e-01 8.0319265100687542e-01  5.1583207194842073e-01 1.7639603582252247e-01 2.2625439128040326e-01  5.5767685317504168e-01 3.9706582902146420e-01 2.2027845827896997e-01  6.3925760956040190e-01 5.1587176074670282e-01 4.0066962672883449e-01  7.2135202456039149e-01 7.2027370629655840e-01 3.4809611892458264e-01  6.3347746536801242e-01 7.0010283260512729e-01 1.5811880042948206e-01  6.0115409950180543e-01 6.4431911598047675e-01 1.2615203527379634e-01  5.5822159203897070e-01 5.3008276469233773e-01 9.7943758583785748e-02  4.9985234589193955e-01 3.0233134106236886e-01 7.3975208463782943e-02  4.9841560186820039e-01 2.9430629668780356e-01 7.4352301676204213e-02  4.9393825356270527e-01 2.6589236438014024e-01 7.7291420590608770e-02  4.8828121593785934e-01 2.3300673471694003e-01 7.8481903393236865e-02  4.9270113522483111e-01 2.5989924405530895e-01 7.6915320829968215e-02  5.3000677713855615e-01 4.3707576659555958e-01 8.0009985726169741e-02  5.6071816476590663e-01 5.4965583536018447e-01 8.9060204245654473e-02  5.7961822698067855e-01 5.9831163558717781e-01 1.0545708475116423e-01  5.4425861011636445e-01 4.8896793516218368e-01 8.6403776606789509e-02  6.5712065090515115e-01 5.3169854041829478e-01 4.3957286417443425e-01  5.0344553402778436e-01 3.2027439691305964e-01 7.4186006312076003e-02  6.0839970149590361e-01 6.7151731657070268e-01 1.1888386096027249e-01  4.9244036996552298e-01 2.5729327532911722e-01 7.7608450532081610e-02  5.7013514357835604e-01 5.6527428039327987e-01 1.0549355156979556e-01  5.3508404737612447e-01 4.5660611049943411e-01 8.1805558817662591e-02  4.9193237633274689e-01 2.5511016659491809e-01 7.7280199652865686e-02  6.9437740736638265e-01 5.8808278959820404e-01 4.7347642066190754e-01  6.9486308076817449e-01 7.5029154701457490e-01 2.4634655021461146e-01  6.7138529736502683e-01 7.3901439039069294e-01 2.0814192479390423e-01  5.5444069682899810e-01 5.1026871526726392e-01 1.0259152740512541e-01  6.6527569317320567e-01 5.2838763023646995e-01 4.6926071774752470e-01  6.9903278782107081e-01 5.7834061840409257e-01 4.9788792359745221e-01  5.3779374709828520e-01 2.4706794297878504e-01 2.6846489380595934e-01  6.4964510310853318e-01 7.1365148214653262e-01 1.8612730407927519e-01  6.9667278333060911e-01 7.4953500465176826e-01 2.5154569269067761e-01  6.2463766393885367e-01 6.0443568859853447e-01 2.5004602025645789e-01  6.7731731130814310e-01 7.4225981547244213e-01 2.1803805708757576e-01  6.6864171842264364e-01 5.2175509586981694e-01 4.8784705158032776e-01  7.0385356984552716e-01 5.7057484985484963e-01 5.2031412368117280e-01  6.2916273352943564e-01 4.7519756606767966e-01 4.1368129629851635e-01  5.5548088911519999e-01 5.2949890785396103e-01 8.9418025342877155e-02  5.4756825965844957e-01 5.0128109625185913e-01 8.7228493284696812e-02  5.5844884645746773e-01 5.3924988678096852e-01 9.0671994269100664e-02  5.5013334447931783e-01 5.1027833306012838e-01 8.8194825576630331e-02  5.6138810038780418e-01 5.4827899702415805e-01 9.2315938758171304e-02  5.3898155906002887e-01 4.6931219803412005e-01 8.4715852003561090e-02  5.4066463558782518e-01 4.7548024109362552e-01 8.5390786014027276e-02  5.2979145033248809e-01 4.3315144929337396e-01 8.2170268712157615e-02  5.3069892231937899e-01 4.3652461776071033e-01 8.2634238399876270e-02  5.2062662856099817e-01 3.9489243996862439e-01 7.9890317195092583e-02  7.6147185491887437e-01 5.0209809782382964e-01 7.1891434729317316e-01  7.0265277483843880e-01 7.4907763192793309e-01 2.6467799096302869e-01  5.1954463453392097e-01 3.9065768705034487e-01 7.9326796700499511e-02  5.1161261715905471e-01 3.5558404743990640e-01 7.7531221451376170e-02  5.8669404582294915e-01 6.2472675069545647e-01 1.0130789909115064e-01  5.4128990178974634e-01 4.7748006158027206e-01 8.5866897816196996e-02  5.3056930798773794e-01 4.3573374443599250e-01 8.2803021183115624e-02  6.3112760948250279e-01 4.7444038729196697e-01 4.2148190905557281e-01  5.9135036082243275e-01 4.1490938715320935e-01 3.3701499300126964e-01  6.8524125638214506e-01 7.4570440062652688e-01 2.3160277669913790e-01  5.8491244788768593e-01 5.9635290881811376e-01 1.2505333671199712e-01  5.4109107696065684e-01 4.7644056439830096e-01 8.6042933147341724e-02  5.2961388907014328e-01 4.3179201586448152e-01 8.2610944763058594e-02  5.2041526238900693e-01 3.9336797429462766e-01 8.0278410447383569e-02  7.4520985437536758e-01 6.9119189032526884e-01 4.3130929954567349e-01  7.3913224200147654e-01 6.4453784108221579e-01 4.9002715252631501e-01  5.1077834193539917e-01 3.5249552547233920e-01 7.6871998045195247e-02  5.0473983537936407e-01 3.2449335380647421e-01 7.5655090379130471e-02  5.0463249278495237e-01 3.2294533956724630e-01 7.6317920925904836e-02  4.9993856736297931e-01 3.0100181239943508e-01 7.5064996885589833e-02  6.5607951152542965e-01 7.2509592573851989e-01 1.8830966278563224e-01  6.6395287969458283e-01 7.3179569216948248e-01 1.9960362258184708e-01  6.3373823124115813e-01 6.9714206626107400e-01 1.6272881341947731e-01  7.7989606652376953e-01 6.0832360556207676e-01 5.9947978819166670e-01  5.1904408617604381e-01 3.8746933909879810e-01 7.9941044035568301e-02  5.4951765825951149e-01 5.1111191461658168e-01 8.5523872875953769e-02  5.9187674762668940e-01 4.1864064361706110e-01 3.3580267035016598e-01  5.5623012801455929e-01 3.3045836212907614e-01 2.7529443796701009e-01  6.3915594002327714e-01 4.9385790130552509e-01 4.2820033524591633e-01  7.4561250740065710e-01 6.7483441079461493e-01 4.5646393416790149e-01  7.1865930989833104e-01 7.4282257171927724e-01 3.0622913644025174e-01  5.6899600450864019e-01 5.7284119736654338e-01 9.4796995768175019e-02  5.7285865861807350e-01 5.8341827108294597e-01 9.7406064189235739e-02  5.7971026672241566e-01 6.0364839547679749e-01 1.0001094999864923e-01  5.8469170708000540e-01 6.1598958959550876e-01 1.0367912992780087e-01  5.9062842828715101e-01 6.3185589651276342e-01 1.0634926787925550e-01  5.9655382637246002e-01 6.4509663221820635e-01 1.1102353148257153e-01  5.8809001214395584e-01 6.2378296373111264e-01 1.0657726659886330e-01  5.9993466277812457e-01 6.5185562305613309e-01 1.1428503886337012e-01  5.8889626127044170e-01 6.2490912913191510e-01 1.0796560848278043e-01  5.9970347376336453e-01 6.5025461659985595e-01 1.1527929237498355e-01  6.1024303586070250e-01 6.7320626733262756e-01 1.2233549848930891e-01  6.0829533733332453e-01 6.6775998255728441e-01 1.2253905295107322e-01  6.1713324081885657e-01 6.8473588304726629e-01 1.2988079376664935e-01  6.1268255413579076e-01 6.7405487765230121e-01 1.2881200731437509e-01  5.9517233148746607e-01 6.3888498906616609e-01 1.1324565662620875e-01  6.8980470603329092e-01 7.4698943262739592e-01 2.3993915909900121e-01  6.4135089363002618e-01 7.0693641256546724e-01 1.7194970944916063e-01  6.1113024629438095e-01 6.5811599926614250e-01 1.4137402495678023e-01  6.1780198592403901e-01 6.6983059567886760e-01 1.4829364520214747e-01  5.8886090087274201e-01 6.0928187379280341e-01 1.2357488267513549e-01  5.9274650118668537e-01 6.1791308173769754e-01 1.2722392399251861e-01  5.6719646896801235e-01 5.5114824782014149e-01 1.0881388439851865e-01  5.6923398620797883e-01 5.5640684972351884e-01 1.1061857461362705e-01  5.4722146342697409e-01 4.8802930271636891e-01 9.7068478594942831e-02  5.4804490944411755e-01 4.9067431784315341e-01 9.7695606562147250e-02  5.4467216305593691e-01 4.8001451103571924e-01 9.5167843168870878e-02  5.3016786847931863e-01 4.2655956620252761e-01 8.8426733249047276e-02  5.2984992424505306e-01 4.2536802720704686e-01 8.8263388316226168e-02  7.3664364751483646e-01 6.3066180256036120e-01 5.0558202842872746e-01  6.1844856627003386e-01 6.8301922710493690e-01 1.3590673964589320e-01  5.0098002366202232e-01 3.0734912244333246e-01 7.4429305265175466e-02  4.9875964294998615e-01 2.9572577661697647e-01 7.4556940733335270e-02  4.9676050801678850e-01 2.8429054707002127e-01 7.5183552650395585e-02  4.9781908486231941e-01 2.8963684465527595e-01 7.5310668658942356e-02  5.0150418848687950e-01 3.0873202992141802e-01 7.5269608439784447e-02  4.9497034866993678e-01 2.7390317424949079e-01 7.5764755409393703e-02  5.0340546948800236e-01 3.1887998981356458e-01 7.4985373552450940e-02  4.9824876847777111e-01 2.9029568778115838e-01 7.6296586224997964e-02  5.3970615595375970e-01 4.7119972706684521e-01 8.5632567455855887e-02  5.1126043203107097e-01 3.5251666062671172e-01 7.8458626908158483e-02  5.0980796464457134e-01 3.4592074451646715e-01 7.8126246489154769e-02  6.0170814039469100e-01 6.5738810225011879e-01 1.1380126581694180e-01  5.1639095807053870e-01 3.7127436066351743e-01 8.2552631127980447e-02  5.7275467349212572e-01 5.4845391320344650e-01 1.3053479788472566e-01  5.9099328287379083e-01 4.1997667965051383e-01 3.2983479555164957e-01  5.8899932759748097e-01 6.0200949922062041e-01 1.3228292021763913e-01  5.1746852301417834e-01 3.8093395380720585e-01 7.9343920037022675e-02  4.9502982270238144e-01 2.7390130604847884e-01 7.5955014618868763e-02  4.9249423131319592e-01 2.5931229285086871e-01 7.6574333761905672e-02  5.8050456646166193e-01 6.0210011049157719e-01 1.0438101145946134e-01  6.2056243394145061e-01 6.9009759993444131e-01 1.3384866338836612e-01  7.4362270884263015e-01 6.6500653067721494e-01 4.6790638484169500e-01  5.7041362010959340e-01 5.5964273764044781e-01 1.1176469386215092e-01  5.5627371638847567e-01 3.3270179788335935e-01 2.7344023023058051e-01  5.3470483865957064e-01 2.3610487001814942e-01 2.6374930864205731e-01  6.4965359261718691e-01 2.1760154443058849e-01 7.4044183192330226e-01  7.1856559989880830e-01 6.4549277147662509e-01 4.5036701029709081e-01  5.6224085094346066e-01 3.8585022507791450e-01 2.4955909210285165e-01  6.1782550070293973e-01 6.7968716383679928e-01 1.3800245353706797e-01  5.3299505963306482e-01 2.3838774426442988e-01 2.5437913673179663e-01  5.3450847089468345e-01 1.6567799897163932e-01 3.1566459099066763e-01  5.3609158587235506e-01 1.7083634631432112e-01 3.1905800623846192e-01  5.7718388825227107e-01 4.2627655571779366e-01 2.6903656371049539e-01  5.7699158039156673e-01 5.9352343560039833e-01 1.0108780720991736e-01  5.7581050042327586e-01 5.8963534729480727e-01 1.0100778959874443e-01  5.0345077685979323e-01 3.2068634497115639e-01 7.3923652339201798e-02  4.8987897320270019e-01 2.4266038706335316e-01 7.8004560282237109e-02  5.4010712235270941e-01 4.4073182949406459e-01 1.1251756975755929e-01  5.6632295221190743e-01 1.4572759370496760e-01 4.6792376847145190e-01  5.7329377115978253e-01 1.5072674263258168e-01 4.9443004257595113e-01  5.8348153640570888e-01 5.9707602047509589e-01 1.1850552377848456e-01  5.5391342850523073e-01 5.2695638336947781e-01 8.6550628737096610e-02  5.5895271666919788e-01 5.4142243811700885e-01 9.0448990918548369e-02  6.2793168938439803e-01 6.8936152331663214e-01 1.5526688173455033e-01  5.8752691006509106e-01 5.9384826998939177e-01 1.3575737515702985e-01  5.0448897675069548e-01 3.2182755407783659e-01 7.6552465054466959e-02  5.1645058823723611e-01 3.7173926193935253e-01 8.2407117060248461e-02  7.1981953922189568e-01 6.1335420499721793e-01 4.9686584603464773e-01  7.1432599406025732e-01 5.9375265011461775e-01 5.1218306345247622e-01  5.3571614457900985e-01 4.5235444945146014e-01 8.7196804955039023e-02  5.8230482773299508e-01 6.1177078089962766e-01 1.0034850519033112e-01  7.8454620576232570e-01 6.8477030266270034e-01 4.9302729724783390e-01  6.4845579242789941e-01 6.4966598385707386e-01 2.6776559263369054e-01  7.4262022557496588e-01 7.0690628564425728e-01 4.0307111543473606e-01  5.1762859161234465e-01 3.8275570724179692e-01 7.8579245965435765e-02  5.6218598107341844e-01 5.5230847988195630e-01 9.1402671419064538e-02  5.1548724426517667e-01 3.6780601319430289e-01 8.1970332393521639e-02  5.2746292354964097e-01 4.1656007411485130e-01 8.6865112358281218e-02  5.0696826778410464e-01 3.3009979255362409e-01 7.9302353170224535e-02  6.4526676110708048e-01 7.1158077051183144e-01 1.7689516222886784e-01  7.1487459359298666e-01 7.4651434902275970e-01 2.9410729945007441e-01  5.6203068138773182e-01 1.3815903912870153e-01 4.5460467296858720e-01  5.0306928753