<?xml version="1.0"?>
<VTKFile type="UnstructuredGrid"  version="0.1"  >
<UnstructuredGrid>
<Piece  NumberOfPoints="600" NumberOfCells="1069">
<Points>
<DataArray  type="Float64"  NumberOfComponents="3"  format="ascii">239.8 188 0  250.2 180 0  258.2 172.4 0  257 169.4 0  259.9 157.4 0  258.7 150.3 0  261 143.5 0  251.7 144.4 0  250 138.7 0  247 138.1 0  245.2 130.8 0  247.3 126.4 0  242.7 118.6 0  231.2 107.7 0  226 102.4 0  226.5 93.90000000000001 0  224.5 91.19999999999999 0  224.5 84.09999999999999 0  234.5 73.80000000000001 0  228.4 68.90000000000001 0  230 70 0  233.4 68 0  222.7 61.5 0  220.6 45.5 0  223.4 49.40000000000001 0  224 47 0  221.8 43.09999999999999 0  221 38.40000000000001 0  219.5 38.5 0  219.4 41.69999999999999 0  217.1 36.90000000000001 0  209.7 36 0  209.5 31.69999999999999 0  205.1 29.90000000000001 0  201.5 30.40000000000001 0  199.2 38.69999999999999 0  201.8 41.40000000000001 0  194.8 53.80000000000001 0  196.1 57.69999999999999 0  193 59 0  191.4 66.09999999999999 0  193.5 66.5 0  194.1 64.40000000000001 0  195.6 64.69999999999999 0  195.4 72.40000000000001 0  199.5 77.30000000000001 0  197.7 86.90000000000001 0  200.6 87.5 0  201.5 91 0  198 94.80000000000001 0  198.6 100 0  197.3 105.4 0  198 109.5 0  197 112.7 0  198.3 116.1 0  201.3 122 0  207.2 121 0  208.1 126.7 0  205.6 127.9 0  209.1 134.9 0  210.9 144.4 0  210.1 147.9 0  213 148.4 0  215.4 149.3 0  215.1 152.8 0  219.9 159.7 0  220.3 163.2 0  218.7 164.9 0  219.9 166.7 0  221.9 169.7 0  220 170.3 0  224.9 174.7 0  229.8 177.4 0  229.7 181 0  228 172.9 0  239 178 0  240.4 180 0  239 181.5 0  241.2 185.9 0  242.95 187.99 0  241.113414658978 187.995830429654 0  242.142964269982 187.9925620181905 0  243.6619187087475 187.2054164851183 0  244.631513060971 186.1368566403919 0  245.9520480703466 184.6815359886801 0  247.7505449816197 182.6994683581873 0  252.8666666668011 177.466666666539 0  255.5333333336077 174.9333333330727 0  257.9666666666661 165.4000000000025 0  258.9333333333339 161.3999999999974 0  259.3000000000018 153.8500000000108 0  259.849999999995 146.9000000000149 0  256.350000000011 143.9499999999989 0  250.8500000000015 141.5500000000051 0  246.1000000000042 134.450000000017 0  245.0000000000049 122.5000000000082 0  239.8250000000041 115.875000000004 0  236.9500000000083 113.1500000000079 0  234.0750000000041 110.4250000000039 0  228.6000000000041 105.0500000000042 0  226.25 98.15000000000002 0  224.5 87.65000000001388 0  227.8333333333301 80.66666666667 0  231.1666666666644 77.23333333333571 0  232.2500000000014 71.90000000000116 0  230.8999999999995 68.45000000000009 0  225.5500000000108 65.20000000001409 0  222.9333333333329 57.46666666667507 0  223.1666666666663 53.43333333333877 0  218.2500000000016 39.30000000000339 0  213.4000000000277 36.45000000000337 0  200.3500000000025 34.54999999999097 0  199.4666666666726 45.53333333332282 0  197.1333333333385 49.66666666665756 0  193.5499999999978 61.6999999999891 0  193.3999999999962 69.24999999999406 0  197.4499999999954 74.84999999999454 0  198.6000000000007 82.09999999999631 0  199.7500000000014 92.8999999999985 0  198.2999999999997 97.39999999999726 0  197.950000000001 102.699999999996 0  199.7999999999944 119.049999999989 0  204.2499999999946 121.5000000000009 0  207.6499999999987 123.8499999999919 0  207.35 131.4 0  209.9999999999998 139.649999999999 0  217.4999999999938 156.249999999991 0  223.4 172.2 0  234.349999999995 179.5000000000016 0  243.6879031604435 137.0140197666175 0  200.5383884465266 74.3488835611292 0  236.0631303447202 117.0934887033495 0  255.2860706566257 162.4962097513293 0  210.288597171716 124.9641969758756 0  200.5494091764226 101.6938959209836 0  221.0463142825589 155.4583368622661 0  213.2458552033902 137.0182369603261 0  202.5715495252679 76.72215432732189 0  203.3954031521662 88.63888283314805 0  204.2685850489914 91.3771816532193 0  227.6002395557545 108.6285485308707 0  203.628067965887 73.80056467640915 0  205.5882193517793 76.19298591547215 0  219.3893731065793 59.36381842571261 0  222.6962970705901 100.2685345181304 0  206.2147206748961 89.23684943534887 0  224.5717795045128 68.90112930058935 0  207.1505150846513 91.97409496002633 0  206.6973804802006 73.20614062920998 0  209.0198262461606 75.84435446174592 0  204.6828826698789 70.78585325419728 0  244.5505030757118 140.1958289722003 0  241.2713205316759 139.2760911012237 0  242.0887623359319 142.523888210035 0  238.8201809392432 141.5810446831215 0  239.6254755922404 144.8663288044098 0  238.0282380951174 138.3361101328854 0  235.5650201404635 140.6403522599634 0  234.7868703265066 137.3765638391416 0  232.3671992655526 139.7040340002533 0  231.5735594060041 136.4371341666237 0  203.6025996895933 45.13245413868078 0  209.0094500142995 89.77916893533093 0  234.0048963149566 134.0619286436701 0  230.7388584519252 133.0932019642386 0  256.0202376970822 152.4353991158102 0  233.1239077827668 142.9168616681826 0  229.9476468053365 142.0041066209365 0  207.8316386186595 70.1760146256688 0  205.8080150778045 67.77328389450008 0  210.1255397865818 92.58553759086743 0  249.9530000513888 175.7831884132348 0  230.7520925362455 145.2114145624654 0  227.5614746466729 144.2879078440436 0  226.855634298717 141.1029513419209 0  221.109901317114 86.07738557802102 0  221.3898452401857 82.41394785245797 0  233.1906280944642 130.7538222264552 0  229.849944657733 129.8156996791429 0  227.4514186000422 132.1240250470279 0  226.5693510741891 128.7503487535618 0  208.0732626511005 94.86195720558288 0  211.0579654481564 95.54875779444082 0  209.0041892644107 97.86214677695602 0  216.7276956906574 41.503774594868 0  224.4517166451922 143.3327513982825 0  222.7890579510523 161.0597281586643 0  209.0698801997012 67.10609773523754 0  206.9141710660066 64.58868367949086 0  211.5265666272545 70.15591236789595 0  218.2872405225432 83.97244872861398 0  207.7311279855657 86.71297189445447 0  242.9081583239214 145.8040728889821 0  240.4621480942806 148.1601866910276 0  243.7562457682554 149.0907552716282 0  241.3145175595932 151.4726760652338 0  244.57940289053 152.3666461928266 0  242.1615185950008 154.7794567484269 0  238.8718789959482 153.837018554675 0  239.7122407256576 157.1523621063041 0  236.4289375384117 156.2070529629317 0  237.2412111497984 159.5248795948406 0  240.5638486223294 160.4901132255754 0  238.1023772270576 162.8725976094984 0  241.406699334305 163.8359650846702 0  238.9630278156374 166.2175426435888 0  234.7361516891476 161.8928266488476 0  213.124654294145 93.56046727196781 0  212.0434836741439 98.5447165103807 0  209.9504013355788 100.9044854564887 0  213.0958854424699 101.5871381629478 0  210.9302285957408 103.9580876602797 0  214.0010858928389 104.7096094485587 0  211.9141605791952 107.0615795921763 0  214.9890206858068 107.8102538193681 0  212.9269247290344 110.1901972673309 0  216.0786784436673 110.8721476340726 0  209.7617142319936 109.4041944495815 0  213.932211035267 113.2627867337288 0  217.0813395790477 113.941453344218 0  218.441750941724 80.63655841437071 0  242.2412500877879 167.1781012200828 0  229.2280100589433 126.5393356137107 0  225.9203624138538 125.4446005931909 0  223.3571983269889 127.7265579015054 0  222.6136526124249 124.535547281476 0  225.3056527306165 122.1016033222114 0  220.3254947810712 126.7409252226328 0  201.0777098578984 116.3274181811247 0  219.7857338015156 123.3740225787907 0  228.3312248450329 147.5116593523427 0  223.7608055035202 140.2236832285434 0  221.3299816979287 142.3937311365609 0  245.4512147769152 155.7068319139237 0  214.9140854911084 116.3016229600955 0  241.4261562479406 177.9745543740275 0  202.8157779574545 68.56000166221941 0  240.0703975438099 175.788326095019 0  222.1092806876692 145.4935485219417 0  220.9446699547174 129.9892194059113 0  217.7131509102484 129.0121441451285 0  231.966766611991 173.6290727753235 0  244.7035101352062 164.8150950666352 0  215.4589412711449 82.35047797613059 0  218.5358717759109 108.3057574313637 0  210.0910095413371 63.89870618133642 0  207.8879031726656 61.27101234314142 0  219.5945508510063 49.26517889117938 0  204.4640092132492 79.16637174968085 0  219.054165325738 63.24726086273807 0  245.5364828646638 168.1932520030346 0  204.1722248369768 62.21708558088665 0  205.6821920907016 58.50393459316535 0  209.6155639374877 57.86856426712311 0  196.5553895895766 69.81481204083099 0  235.6123608690412 152.8874163252039 0  233.2157615582107 155.2532908181879 0  240.6837858645011 122.4172544901715 0  210.8141135626509 127.8682271622992 0  245.3812170314571 182.2522052029404 0  206.9456715292139 54.99559933887414 0  210.5075513436263 54.0697256538542 0  207.9169085133073 103.1765167571325 0  223.2431750051092 164.070583057325 0  225.7483443677002 162.1151723759482 0  206.0378951001477 96.94148998994152 0  242.6796154699829 175.6597339900036 0  214.6838055972238 146.7252062992904 0  211.9990465678071 115.5576487680909 0  221.4613603554043 78.78973924681317 0  218.3291154698718 77.0769598533563 0  200.3358005877804 107.1120377748188 0  247.4072167499741 149.4171847419639 0  211.6397508657857 39.55684201930068 0  226.8243927196049 72.17619845696734 0  215.354291780634 85.55308818793476 0  236.5600255652378 131.6759521500912 0  226.0129792461303 165.2837912620818 0  218.060680211082 117.0067370946569 0  220.2726382852709 114.6051380114157 0  212.8793579154693 118.3711453694285 0  215.022609143906 99.35520341734289 0  203.0459334752391 85.71272568041367 0  202.8915272398735 55.67723839797077 0  220.5465456567309 139.1747891305704 0  239.6921265383864 169.3260213165692 0  236.6712881821608 168.5826958099534 0  218.0125893802946 141.5012621699478 0  201.3193403438535 110.3399099823547 0  203.3799271438462 107.9393487975089 0  248.1978655115356 165.7601936670729 0  248.8804221900089 169.2105116441819 0  237.1867529048816 147.1869371163321 0  236.7369473929319 176.2832209442509 0  247.3010859001464 162.3677476585113 0  204.3727171343656 110.8209535355564 0  235.7766571132668 128.3537547116865 0  217.8932394506906 150
[...]
<PointData  Vectors="f_12"> 
<DataArray  type="Float64"  Name="f_12"  NumberOfComponents="3" format="ascii">6.9479213626019121e-01 2.4758314877620557e-01 8.5582589368382522e-01  5.5174945883139104e-01 1.0269484836563769e-01 4.3444266842953400e-01  5.0420576190708821e-01 1.3970500979962180e-01 2.0084954990198528e-01  5.0804493000820616e-01 1.8787606739586443e-01 1.8477502971031889e-01  5.5501054765763291e-01 4.9058548651292189e-01 1.2376066615647646e-01  5.8476301008078124e-01 5.9007006516725635e-01 1.3132692928084724e-01  5.8323733257909394e-01 5.9932808030080942e-01 1.1687892476697841e-01  6.1673630966254611e-01 6.3947578480408029e-01 1.8235319042850795e-01  6.0715801867078867e-01 6.2188055036846335e-01 1.7160986101285172e-01  5.9343268440184194e-01 5.9709946137362169e-01 1.5277572765498990e-01  5.5124886910631476e-01 5.0735881340051692e-01 9.5322119128633032e-02  5.4376872316785141e-01 4.8793904138022498e-01 8.6512268977050499e-02  5.8087858748272025e-01 5.9502697660872184e-01 1.1325121374266550e-01  6.7792029158270606e-01 7.1771992740644108e-01 2.5658971791760171e-01  6.0857408790426071e-01 5.2259055561953094e-01 2.8602670629036792e-01  5.0762867945476586e-01 2.0760690014335026e-01 1.6771692280711226e-01  5.0302945803347243e-01 1.4221628008272180e-01 1.9108358623262767e-01  5.1731724710611715e-01 8.0185507569634870e-02 2.8734220171740943e-01  5.1592584723458390e-01 7.9413346398591919e-02 2.8123636063565122e-01  5.1559085628773405e-01 7.9627851009559852e-02 2.7969300986353546e-01  5.1559126742065542e-01 7.9574765089975574e-02 2.7971338881906738e-01  5.1524276692193816e-01 7.9633761571651251e-02 2.7816384455722692e-01  5.1870740271169435e-01 7.9350695256139150e-02 2.9343559068384378e-01  5.5101083829228170e-01 8.1196945676643706e-02 4.3457342045973923e-01  5.3588862963016559e-01 7.8778223283652943e-02 3.6921424390648427e-01  5.5090141940574400e-01 8.0483091431593934e-02 4.3485465424467540e-01  5.5542701725732524e-01 8.2035150164506090e-02 4.5368416436593589e-01  5.6109449132733835e-01 8.3213577383355400e-02 4.7800925214113460e-01  5.6097657724082561e-01 8.3238674914064309e-02 4.7746274572728287e-01  5.6010278580191131e-01 8.3526983297360094e-02 4.7329145730515321e-01  5.7734999156154854e-01 9.0849414900389530e-02 5.4377435575836364e-01  6.2118641534284635e-01 1.2368402898179004e-01 6.9817511303673507e-01  6.5199271535203684e-01 1.5496916745513015e-01 7.8657777536659335e-01  6.6406490855229172e-01 1.7038843009045229e-01 8.1352080803172122e-01  6.6693266830025444e-01 1.7427730776975572e-01 8.1939963869559485e-01  6.3918172346206381e-01 1.4005531357686363e-01 7.5323480333636450e-01  6.1539899502487627e-01 1.1761009117022224e-01 6.8056887337228944e-01  5.8219155805283895e-01 9.1927944492377234e-02 5.6307943572280350e-01  5.7776001386232967e-01 8.9766725175941225e-02 5.4553879123364812e-01  5.7910999298443933e-01 9.0199863761629737e-02 5.5098357213482296e-01  5.7660001062099620e-01 8.8818454490293394e-02 5.4110270671440708e-01  5.7525266730053548e-01 8.8284792362838913e-02 5.3566603373206478e-01  5.7564991154254241e-01 8.8662560758881404e-02 5.3713829013681735e-01  5.7365254869847793e-01 8.7849367140585749e-02 5.2905291261931242e-01  5.6844498252477971e-01 8.5592687569809395e-02 5.0805885979903409e-01  5.6074414531083105e-01 8.3125850712904834e-02 4.7625906191516332e-01  5.7848372326213537e-01 9.0170702668644381e-02 5.4905250844020337e-01  5.7749848452404340e-01 8.9869253011131967e-02 5.4534908462290754e-01  5.8243865633847669e-01 9.3041419275025544e-02 5.6575327671495779e-01  5.9620612022358466e-01 1.0054778907360469e-01 6.2033442147755713e-01  5.7223481537711018e-01 9.1622890670341073e-02 5.2508067280160109e-01  5.4338724536524097e-01 8.5051083246702366e-02 4.0341589096415975e-01  5.2132092480487990e-01 9.1576480520701983e-02 3.0189649378381977e-01  5.1059318531358644e-01 9.8302180493163083e-02 2.5204242929907350e-01  5.0402724322406867e-01 1.1420335017310709e-01 2.1514702189483198e-01  5.0158510720150440e-01 1.5439236148171687e-01 1.8104644440878892e-01  5.4280268109093088e-01 2.2871723117076312e-01 3.0463478039730874e-01  6.0242492139142756e-01 2.1062069422829485e-01 5.8307862179795533e-01  6.0657545130058010e-01 2.0072895904318228e-01 6.1033624930213493e-01  6.4253106522010517e-01 2.9546493100336846e-01 6.6092446375434055e-01  6.1180259833618744e-01 5.2261603957675196e-01 2.9991364468286819e-01  5.9501381231057882e-01 5.2981151465366938e-01 2.3202161605836510e-01  5.8846334263810618e-01 5.1363506165162709e-01 2.2440691626957873e-01  5.6510120452275081e-01 4.6594154996516768e-01 1.8390410094647933e-01  5.4234933233617477e-01 4.0487097743593670e-01 1.5313645343636892e-01  5.8420198066414897e-01 4.3846684449461659e-01 2.8570621014846753e-01  6.2711387863419521e-01 5.1271499710991486e-01 3.6589673409821183e-01  6.3957977766976082e-01 5.4352948587922234e-01 3.7283934933014257e-01  6.4328680690193896e-01 5.6253527437632955e-01 3.6191038934567715e-01  6.4185857741542529e-01 5.8501740039919170e-01 3.2935714165935615e-01  6.4669518478878885e-01 5.9259214382398961e-01 3.3548740143437811e-01  6.1762302129933044e-01 5.6787194788405559e-01 2.7010596735338410e-01  5.1820557694462122e-01 2.9485032281214457e-01 1.4865581990642263e-01  5.0608259338274386e-01 2.5677509577682167e-01 1.2915038279389879e-01  5.8974756490772273e-01 4.9486313356084566e-01 2.4773453943784665e-01  5.2967508283778597e-01 2.0334072562237079e-01 2.6371036303841766e-01  5.7019488874381641e-01 1.5309858003172414e-01 4.7510215659923233e-01  5.9073738580025426e-01 1.4225179753680903e-01 5.7788225262058668e-01  6.6958121348059096e-01 2.1101649870784325e-01 8.1144662199305007e-01  6.8218816060019283e-01 2.2787444122913844e-01 8.3603752786973895e-01  6.8725191313229306e-01 2.3620031715909273e-01 8.4338289797172916e-01  6.8417829066666480e-01 2.3112668421393387e-01 8.3904210625120546e-01  6.7608470475757709e-01 2.1870133910917419e-01 8.2534002328070621e-01  6.5982995319336091e-01 1.9572722228359649e-01 7.9294852379080938e-01  6.3284896652530276e-01 1.6151564408469746e-01 7.2741811723155303e-01  5.9330281281525354e-01 1.2546863053687723e-01 5.9913154522955314e-01  5.2463440414754525e-01 1.0528910294505553e-01 3.1110365909904503e-01  5.0925888114347806e-01 1.2044011418207197e-01 2.3450692770068532e-01  5.2193359670412087e-01 3.0811911480245652e-01 1.5248564957268221e-01  5.3922542095559545e-01 4.1564177962581089e-01 1.3153696629492270e-01  5.7114181501927919e-01 5.4591573353106682e-01 1.2876247775367988e-01  5.8549958062947205e-01 6.0126611310697575e-01 1.2233582097382255e-01  5.9221088786327902e-01 6.1340912054803187e-01 1.3165689636456629e-01  6.1477847730181023e-01 6.3364608647794329e-01 1.8298481449119122e-01  5.6632142580910694e-01 5.4382310534282507e-01 1.1398153906971667e-01  5.5650405648819179e-01 5.2708483143774620e-01 9.5782453664542661e-02  6.0836482263312808e-01 6.5729731517547818e-01 1.3523039922242214e-01  6.3841706759261330e-01 7.0798554890241627e-01 1.6410599003618700e-01  6.6456484507471569e-01 7.3226038627962742e-01 2.0245099287156293e-01  6.6325376080414711e-01 6.5357350837294448e-01 3.0507413185977683e-01  5.3637715417565124e-01 3.3058199383013470e-01 1.9168522992458648e-01  5.0919635972972443e-01 9.4957095258320384e-02 2.4426394491158515e-01  5.1867596853810494e-01 7.8588294702561942e-02 2.9377391978314488e-01  5.1666521029270840e-01 7.9259625887704285e-02 2.8452750104368624e-01  5.1581700488145676e-01 7.9456013112947588e-02 2.8074468660398316e-01  5.1545121189580068e-01 7.9599046522192310e-02 2.7909049950502984e-01  5.1602047047520216e-01 7.9708432069343166e-02 2.8154392272194723e-01  5.2331202486672457e-01 7.8823342661085344e-02 3.1384403113211418e-01  5.2941026191644314e-01 7.8532807838248495e-02 3.4081967059046181e-01  5.7091710876763146e-01 8.7971460146472086e-02 5.1767878795043043e-01  5.8985375613536817e-01 9.8767466135941326e-02 5.9098297801074851e-01  6.5605153744320555e-01 1.5986890763826464e-01 7.9590850975070260e-01  5.9103500368833839e-01 9.7913461828733075e-02 5.9674849132690055e-01  5.8506757016759181e-01 9.3640241008980829e-02 5.7430378937989213e-01  5.7771718213776868e-01 8.9583274871846211e-02 5.4541286289361413e-01  5.7421870865476887e-01 8.7832865301702243e-02 5.3152323655191080e-01  5.6317709026615537e-01 8.3758310075442377e-02 4.8640100102842621e-01  5.7109461582430887e-01 8.7030880553552778e-02 5.1896995443506211e-01  5.9240631019064127e-01 9.8539324125059280e-02 6.0509276996428629e-01  5.8912510417225750e-01 9.7443984842337461e-02 5.9314372819087291e-01  5.5588399471804428e-01 8.6807584120443149e-02 4.5758709574652612e-01  5.0108837236719450e-01 1.3796396515642081e-01 1.8896543270238061e-01  5.1053493816669127e-01 1.7893033161673175e-01 2.0184872042800858e-01  5.7791280844437642e-01 2.2557946321502012e-01 4.6336318946158644e-01  6.2127792455819153e-01 2.2357783824243072e-01 6.4902377570786340e-01  6.4396423689090976e-01 4.3339105239545672e-01 5.1628866952265018e-01  5.4840015887380200e-01 3.9777330687915474e-01 1.8306430374033397e-01  6.2547591020925397e-01 5.7579325178966223e-01 2.8629526091627333e-01  5.0768199957824200e-01 2.4961881887701085e-01 1.4010569023532024e-01  5.7863162297034543e-01 5.6943087644997903e-01 1.3131766232021122e-01  5.5874485015457664e-01 8.2594099712555269e-02 4.6770148655604010e-01  6.3021005759894666e-01 6.9059568824483197e-01 1.6156787105120701e-01  5.3752454234676805e-01 3.8788888449954556e-01 1.4847815607504458e-01  5.9654758491779181e-01 2.2503404592252974e-01 5.4455921964978171e-01  5.5755353634553295e-01 9.0991575200798633e-02 4.6071384493383488e-01  5.5537039885607720e-01 4.0474230276655432e-01 2.0449860336124984e-01  6.5219504511438098e-01 3.9178964636270225e-01 5.9133283050363339e-01  5.5595792423889734e-01 8.2022317527944213e-02 4.5584227217650064e-01  5.7487616068718694e-01 8.9179140274292315e-02 5.3504718269140461e-01  5.7145063989392308e-01 8.9586490271960931e-02 5.2026339229370000e-01  6.7890975248400631e-01 6.8745353177567914e-01 3.0092144287808453e-01  5.5056963572111839e-01 8.0915899554301202e-02 4.3266873807057082e-01  5.4746331126619818e-01 8.0423236993477601e-02 4.1928557832483337e-01  5.2192250425626630e-01 7.8971881660507351e-02 3.0769103275773024e-01  5.6000183167620721e-01 3.9596855127152814e-01 2.2825526488446574e-01  5.6195854918860588e-01 8.5578455034979309e-02 4.8103977891650462e-01  5.1599585554895167e-01 7.9649561228417501e-02 2.8145915941507849e-01  5.5128415642150752e-01 8.7128175665335331e-02 4.3284246120073538e-01  5.4117778217181012e-01 7.9537789369415274e-02 3.9201644266056473e-01  5.3769480175390083e-01 7.9163032253531732e-02 3.7689213039751646e-01  5.4574571560694607e-01 8.0204114090658266e-02 4.1174718162330226e-01  5.9798137025782561e-01 6.0078362785305373e-01 1.6437181043771026e-01  5.8942286106418662e-01 5.8583730014602708e-01 1.5165056450932399e-01  6.0560877951798120e-01 5.9981157223942094e-01 1.9149451061076958e-01  5.9758669454465130e-01 5.8767787383144343e-01 1.7799752232404528e-01  6.0907605321717517e-01 5.8113161189895302e-01 2.2481990785884065e-01  5.9191861017070235e-01 5.9155057195239558e-01 1.5423899834597446e-01  5.9928381323085644e-01 5.9078212355400639e-01 1.8048558958173172e-01  6.0785787606768660e-01 6.1457227176860751e-01 1.8211522215730813e-01  6.1219354612660426e-01 6.0366755260643523e-01 2.0922594015911308e-01  6.3330081160738594e-01 6.3379313826463479e-01 2.4082749780358859e-01  5.9203380779861114e-01 9.9521569244501187e-02 5.9955923251193421e-01  5.4522763333107593e-01 8.3776490651437857e-02 4.0818767885058199e-01  6.2315121688966890e-01 6.3927327681206891e-01 2.0196719896024393e-01  6.5690247487637787e-01 6.5432891234947177e-01 2.8449611085881060e-01  5.8472711420391854e-01 5.7911288751163881e-01 1.4225864701546373e-01  5.9792394542093963e-01 5.6818696210234754e-01 2.0069262809986479e-01  6.0649558552010097e-01 5.7405972221573476e-01 2.2354133277403498e-01  5.3616439420341899e-01 7.9095818312753266e-02 3.7014003890742098e-01  5.4158414979291403e-01 7.9736428007635848e-02 3.9364688796655112e-01  5.3066519447523786e-01 9.1693392456766609e-02 3.3915437935612303e-01  5.2634908593420915e-01 1.1596026562273490e-01 3.1188263913758674e-01  5.8838829379092816e-01 5.2997092340858376e-01 2.0757153634003364e-01  5.9272964386229787e-01 5.3369187452631084e-01 2.1887718805528508e-01  6.2092629659132048e-01 5.7501579677758285e-01 2.7123847996149869e-01  5.1460558945031365e-01 8.4853156888835213e-02 2.7308509104501222e-01  5.2039178371517913e-01 7.8536917566120301e-02 3.0164509981470033e-01  6.4117971751898883e-01 6.6151157306361386e-01 2.2920838406523389e-01  6.7795392783537245e-01 6.6589447452967387e-01 3.2572128120356719e-01  6.8644278941048265e-01 6.3044688406811311e-01 3.9630573647936873e-01  7.0497265345691351e-01 6.2717126888023467e-01 4.4547051191540393e-01  5.3543269498941337e-01 9.5236284809343194e-02 3.5794692679274809e-01  5.1751472589611336e-01 1.1287359541273359e-01 2.7008897224607326e-01  5.2090559012180626e-01 1.1662418278234947e-01 2.8264218969780830e-01  5.6743250556905422e-01 8.6719262530831939e-02 5.0324406728976778e-01  6.0361498268950009e-01 5.3805566620469814e-01 2.5281570575349460e-01  6.0643109623475344e-01 4.6903200551008722e-01 3.3949491466674553e-01  5.3237265228260588e-01 7.8912464388590217e-02 3.5356047280379099e-01  5.3883141145715074e-01 7.9496106163764388e-02 3.8166478442536783e-01  5.2756304732665027e-01 7.8767241593036011e-02 3.3249960329420208e-01  5.2261431646416578e-01 7.9109711259889498e-02 3.1115219084427570e-01  5.5554292989844078e-01 8.2632499223584344e-02 4.5445731504610704e-01  6.2203061515006774e-01 6.0256631209939693e-01 2.4342229542131433e-01  6.2168109145539008e-01 5.6702560039062500e-01 2.8444113675569976e-01  6.3386259469505102e-01 5.9567006783515630e-01 2.9078107288541372e-01  6.3108549157317950e-01 5.5201229322332990e-01 3.3443360385292892e-01  6.3721760503451552e-01 5.8583272844183942e-01 3.1380529115669303e-01  6.3338647202192255e-01 5.4396212276772760e-01 3.5199497959703724e-01  6.2335959013670206e-01 5.0743882994436584e-01 3.5999485836106704e-01  6.2610464628153328e-01 5.0768220557804777e-01 3.6963673404548364e-01  6.1553799051670388e-01 4.7504709516087851e-01 3.6849887459697045e-01  6.1942714592894310e-01 4.8671416076236235e-01 3.6978051920093880e-01  6.1656980143105167e-01 5.0570749494227851e-01 3.3723263014412691e-01  6.0860771806583835e-01 4.8833298711221368e-01 3.2737892111947126e-01  5.9231072474891411e-01 4.7085383508790113e-01 2.8382410334925534e-01  5.8226886232695396e-01 4.4630914748313416e-01 2.7008956304969728e-01  6.1577316316363517e-01 4.8412316362885233e-01 3.5926218218663081e-01  5.1460790053669203e-01 1.0867595422096575e-01 2.5991425482477798e-01  5.1231409062007605e-01 1.5672942394469427e-01 2.2143959457165865e-01  5.1497745880748391e-01 1.5833055177959388e-01 2.3196306390674104e-01  5.2140046665351858e-01 2.3186304255554288e-01 2.0752404849478659e-01  5.2236301295833543e-01 2.2476104711852060e-01 2.1707603416178656e-01  5.4565419797673076e-01 3.2421621877917822e-01 2.3454956494750501e-01  5.4223023728445896e-01 3.0226097313532607e-01 2.3956283902829562e-01  5.7905855009612039e-01 4.0296878348990595e-01 2.9957473447058380e-01  5.6959639512685878e-01 3.6238588909910058e-01 3.0042397312553620e-01  6.1416982840593504e-01 4.4322988588098400e-01 3.9475789601642386e-01  5.3393633249096550e-01 2.6528408006433568e-01 2.3539743541718444e-01  5.9649543598900212e-01 3.8168999387164210e-01 3.9141256977331940e-01  6.4232746042425826e-01 4.4370575282979086e-01 4.9629147618094066e-01  5.2435654546055077e-01 7.8080736760373540e-02 3.1910394503787304e-01  5.6028531623838229e-01 3.8821426261691488e-01 2.3867106692784210e-01  6.9146813938199725e-01 6.7519461587254159e-01 3.4614769556417929e-01  7.1454629383595070e-01 6.2686384084503854e-01 4.6725986294230787e-01  7.1454784730426979e-01 5.4889835340763216e-01 5.7407362918343408e-01  7.1622694172414425e-01 5.3378493564889429e-01 5.9780176652610240e-01  7.1728525184258007e-01 6.2769688343089058e-01 4.7230265243210034e-01  7.0313037546464752e-01 4.4700020349542235e-01 6.7551355718777784e-01  5.0348569309863123e-01 1.3091469741941797e-01 2.0294026992746739e-01  6.9625900813832664e-01 4.3338214633255939e-01 6.7382329340160885e-01  5.7438596344511983e-01 4.8535976752714138e-01 2.0122068738507354e-01  6.3616031819669305e-01 5.6042474192963809e-01 3.3905689044257697e-01  6.1691832837146288e-01 5.3404501579126518e-01 3.0431862379965197e-01  6.2924150015211855e-01 5.7197795610323521e-01 3.0391841597174518e-01  6.1895981192903882e-01 3.6732139710220096e-01 4.9450853175788373e-01  5.4473401839732072e-01 1.6492524141238826e-01 3.5639514485761631e-01  5.5160151011326863e-01 8.1366301737214694e-02 4.3682351010036846e-01  5.2713967583011945e-01 2.0922676801020695e-01 2.4944642631915317e-01  5.8467181605847962e-01 5.0266772815346150e-01 2.2132543194128645e-01  7.0258865232828727e-01 4.7228020930317910e-01 6.4395360777951594e-01  6.8149436120030360e-01 3.6482823713038048e-01 7.1250949464352542e-01  5.4878307947979543e-01 3.8016775176675771e-01 1.9881715668413294e-01  5.6946116137273872e-01 4.2459170677585018e-01 2.4080612079680694e-01  5.2947354815593517e-01 7.8119698446845756e-02 3.4169904703593984e-01  6.2450806531286718e-01 5.0014634658966484e-01 3.6904949910452711e-01  5.3080714537249662e-01 7.8883810425809803e-02 3.4671709591867644e-01  5.3827699319294697e-01 7.9491225661461162e-02 3.7926451003969780e-01  5.3999277838293724e-01 7.9503203688332150e-02 3.8684803132326473e-01  5.5511891097273258e-01 8.2099128240154612e-02 4.5207359321495794e-01  5.1916514558747973e-01 7.9290808584286374e-02 2.9548006654227194e-01  5.3916852685997729e-01 3.1312837909396579e-01 2.1830585194214230e-01  5.4943300517879612e-01 8.1205628524814680e-02 4.2738000402182036e-01  5.4857701286559424e-01 8.1171801626767293e-02 4.2367827484307824e-01  5.3769475649567355e-01 7.9429403330672249e-02 3.7679111579004043e-01  5.6954489821032461e-01 8.6101008141422339e-02 5.1244186849701845e-01  6.0532026997108923e-01 4.7872626871697566e-01 3.2600471926387570e-01  5.9875982506365621e-01 4.5068132740375527e-01 3.3133702758282824e-01  5.7808224270605535e-01 5.8299603923778076e-01 1.1543607201787370e-01  6.1701236510983160e-01 2.2492995383334133e-01 6.2966384706287892e-01  6.0411606334048928e-01 1.3908502443471282e-01 6.3168050597669989e-01  5.5075120332863481e-01 8.1746857203542411e-02 4.3298766896777130e-01  5.4261166316915910e-01 8.0178239307048288e-02 3.9809900975246032e-01  5.1732821753526292e-01 1.5256745421756507e-01 2.4591428581493499e-01  6.3059110544423747e-01 5.2138251855977535e-01 3.6866799206309642e-01  6.1719962714201937e-01 4.8497040385436313e-01 3.6290707809279321e-01  5.4222376592868771e-01 9.6955153719885959e-02 3.8669853459550252e-01  5.3019218207499386e-01 1.7530770529039741e-01 2.8765504771208289e-01  5.8793048383790303e-01 5.0738777509310928e-01 2.2863716777795631e-01  5.7718359818616971e-01 3.2534707196050977e-01 3.6787154364257296e-01  5.2094305385528772e-01 7.8427410704006537e-02 3.0381678207661011e-01  5.2285369532158354e-01 7.8583147196551489e-02 3.1199800406329020e-01  5.2985284250038411e-01 9.3851404840343433e-02 3.3745577839624913e-01  6.3360847491987859e-01 6.2516600653883303e-01 2.5355002512185570e-01  5.9094790136904773e-01 9.9607475892945871e-02 5.9504241047249518e-01  5.1615967223405301e-01 7.9491144756956553e-02 2.8222608305050118e-01  5.2707605427131177e-01 7.9697051364980231e-02 3.3044908311157056e-01  6.0369146146196617e-01 6.1987602787604901e-01 1.6148131946054253e-01  6.3049990406817025e-01 5.3245479678386010e-01 3.5572391810374310e-01  6.6414794020413748e-01 4.3046221845780513e-01 5.8394319495915781e-01  6.8194488209674720e-01 5.2402773262694535e-01 5.2460280663226833e-01  5.9498670525693087e-01 3.0766868759326033e-01 4.5941004544670350e-01  5.1770072362119579e-01 2.2246057327431551e-01 1.9863115641336190e-01  5.7158678593051537e-01 8.7524599214680657e-02 5.2116585087524880e-01  5.6339725252305206e-01 8.5017968132492017e-02 4.8638172075386427e-01  6.4946744403