<?xml version="1.0"?>
<VTKFile type="UnstructuredGrid"  version="0.1"  >
<UnstructuredGrid>
<Piece  NumberOfPoints="600" NumberOfCells="1069">
<Points>
<DataArray  type="Float64"  NumberOfComponents="3"  format="ascii">239.8 188 0  250.2 180 0  258.2 172.4 0  257 169.4 0  259.9 157.4 0  258.7 150.3 0  261 143.5 0  251.7 144.4 0  250 138.7 0  247 138.1 0  245.2 130.8 0  247.3 126.4 0  242.7 118.6 0  231.2 107.7 0  226 102.4 0  226.5 93.90000000000001 0  224.5 91.19999999999999 0  224.5 84.09999999999999 0  234.5 73.80000000000001 0  228.4 68.90000000000001 0  230 70 0  233.4 68 0  222.7 61.5 0  220.6 45.5 0  223.4 49.40000000000001 0  224 47 0  221.8 43.09999999999999 0  221 38.40000000000001 0  219.5 38.5 0  219.4 41.69999999999999 0  217.1 36.90000000000001 0  209.7 36 0  209.5 31.69999999999999 0  205.1 29.90000000000001 0  201.5 30.40000000000001 0  199.2 38.69999999999999 0  201.8 41.40000000000001 0  194.8 53.80000000000001 0  196.1 57.69999999999999 0  193 59 0  191.4 66.09999999999999 0  193.5 66.5 0  194.1 64.40000000000001 0  195.6 64.69999999999999 0  195.4 72.40000000000001 0  199.5 77.30000000000001 0  197.7 86.90000000000001 0  200.6 87.5 0  201.5 91 0  198 94.80000000000001 0  198.6 100 0  197.3 105.4 0  198 109.5 0  197 112.7 0  198.3 116.1 0  201.3 122 0  207.2 121 0  208.1 126.7 0  205.6 127.9 0  209.1 134.9 0  210.9 144.4 0  210.1 147.9 0  213 148.4 0  215.4 149.3 0  215.1 152.8 0  219.9 159.7 0  220.3 163.2 0  218.7 164.9 0  219.9 166.7 0  221.9 169.7 0  220 170.3 0  224.9 174.7 0  229.8 177.4 0  229.7 181 0  228 172.9 0  239 178 0  240.4 180 0  239 181.5 0  241.2 185.9 0  242.95 187.99 0  241.113414658978 187.995830429654 0  242.142964269982 187.9925620181905 0  243.6619187087475 187.2054164851183 0  244.631513060971 186.1368566403919 0  245.9520480703466 184.6815359886801 0  247.7505449816197 182.6994683581873 0  252.8666666668011 177.466666666539 0  255.5333333336077 174.9333333330727 0  257.9666666666661 165.4000000000025 0  258.9333333333339 161.3999999999974 0  259.3000000000018 153.8500000000108 0  259.849999999995 146.9000000000149 0  256.350000000011 143.9499999999989 0  250.8500000000015 141.5500000000051 0  246.1000000000042 134.450000000017 0  245.0000000000049 122.5000000000082 0  239.8250000000041 115.875000000004 0  236.9500000000083 113.1500000000079 0  234.0750000000041 110.4250000000039 0  228.6000000000041 105.0500000000042 0  226.25 98.15000000000002 0  224.5 87.65000000001388 0  227.8333333333301 80.66666666667 0  231.1666666666644 77.23333333333571 0  232.2500000000014 71.90000000000116 0  230.8999999999995 68.45000000000009 0  225.5500000000108 65.20000000001409 0  222.9333333333329 57.46666666667507 0  223.1666666666663 53.43333333333877 0  218.2500000000016 39.30000000000339 0  213.4000000000277 36.45000000000337 0  200.3500000000025 34.54999999999097 0  199.4666666666726 45.53333333332282 0  197.1333333333385 49.66666666665756 0  193.5499999999978 61.6999999999891 0  193.3999999999962 69.24999999999406 0  197.4499999999954 74.84999999999454 0  198.6000000000007 82.09999999999631 0  199.7500000000014 92.8999999999985 0  198.2999999999997 97.39999999999726 0  197.950000000001 102.699999999996 0  199.7999999999944 119.049999999989 0  204.2499999999946 121.5000000000009 0  207.6499999999987 123.8499999999919 0  207.35 131.4 0  209.9999999999998 139.649999999999 0  217.4999999999938 156.249999999991 0  223.4 172.2 0  234.349999999995 179.5000000000016 0  243.6879031604435 137.0140197666175 0  200.5383884465266 74.3488835611292 0  236.0631303447202 117.0934887033495 0  255.2860706566257 162.4962097513293 0  210.288597171716 124.9641969758756 0  200.5494091764226 101.6938959209836 0  221.0463142825589 155.4583368622661 0  213.2458552033902 137.0182369603261 0  202.5715495252679 76.72215432732189 0  203.3954031521662 88.63888283314805 0  204.2685850489914 91.3771816532193 0  227.6002395557545 108.6285485308707 0  203.628067965887 73.80056467640915 0  205.5882193517793 76.19298591547215 0  219.3893731065793 59.36381842571261 0  222.6962970705901 100.2685345181304 0  206.2147206748961 89.23684943534887 0  224.5717795045128 68.90112930058935 0  207.1505150846513 91.97409496002633 0  206.6973804802006 73.20614062920998 0  209.0198262461606 75.84435446174592 0  204.6828826698789 70.78585325419728 0  244.5505030757118 140.1958289722003 0  241.2713205316759 139.2760911012237 0  242.0887623359319 142.523888210035 0  238.8201809392432 141.5810446831215 0  239.6254755922404 144.8663288044098 0  238.0282380951174 138.3361101328854 0  235.5650201404635 140.6403522599634 0  234.7868703265066 137.3765638391416 0  232.3671992655526 139.7040340002533 0  231.5735594060041 136.4371341666237 0  203.6025996895933 45.13245413868078 0  209.0094500142995 89.77916893533093 0  234.0048963149566 134.0619286436701 0  230.7388584519252 133.0932019642386 0  256.0202376970822 152.4353991158102 0  233.1239077827668 142.9168616681826 0  229.9476468053365 142.0041066209365 0  207.8316386186595 70.1760146256688 0  205.8080150778045 67.77328389450008 0  210.1255397865818 92.58553759086743 0  249.9530000513888 175.7831884132348 0  230.7520925362455 145.2114145624654 0  227.5614746466729 144.2879078440436 0  226.855634298717 141.1029513419209 0  221.109901317114 86.07738557802102 0  221.3898452401857 82.41394785245797 0  233.1906280944642 130.7538222264552 0  229.849944657733 129.8156996791429 0  227.4514186000422 132.1240250470279 0  226.5693510741891 128.7503487535618 0  208.0732626511005 94.86195720558288 0  211.0579654481564 95.54875779444082 0  209.0041892644107 97.86214677695602 0  216.7276956906574 41.503774594868 0  224.4517166451922 143.3327513982825 0  222.7890579510523 161.0597281586643 0  209.0698801997012 67.10609773523754 0  206.9141710660066 64.58868367949086 0  211.5265666272545 70.15591236789595 0  218.2872405225432 83.97244872861398 0  207.7311279855657 86.71297189445447 0  242.9081583239214 145.8040728889821 0  240.4621480942806 148.1601866910276 0  243.7562457682554 149.0907552716282 0  241.3145175595932 151.4726760652338 0  244.57940289053 152.3666461928266 0  242.1615185950008 154.7794567484269 0  238.8718789959482 153.837018554675 0  239.7122407256576 157.1523621063041 0  236.4289375384117 156.2070529629317 0  237.2412111497984 159.5248795948406 0  240.5638486223294 160.4901132255754 0  238.1023772270576 162.8725976094984 0  241.406699334305 163.8359650846702 0  238.9630278156374 166.2175426435888 0  234.7361516891476 161.8928266488476 0  213.124654294145 93.56046727196781 0  212.0434836741439 98.5447165103807 0  209.9504013355788 100.9044854564887 0  213.0958854424699 101.5871381629478 0  210.9302285957408 103.9580876602797 0  214.0010858928389 104.7096094485587 0  211.9141605791952 107.0615795921763 0  214.9890206858068 107.8102538193681 0  212.9269247290344 110.1901972673309 0  216.0786784436673 110.8721476340726 0  209.7617142319936 109.4041944495815 0  213.932211035267 113.2627867337288 0  217.0813395790477 113.941453344218 0  218.441750941724 80.63655841437071 0  242.2412500877879 167.1781012200828 0  229.2280100589433 126.5393356137107 0  225.9203624138538 125.4446005931909 0  223.3571983269889 127.7265579015054 0  222.6136526124249 124.535547281476 0  225.3056527306165 122.1016033222114 0  220.3254947810712 126.7409252226328 0  201.0777098578984 116.3274181811247 0  219.7857338015156 123.3740225787907 0  228.3312248450329 147.5116593523427 0  223.7608055035202 140.2236832285434 0  221.3299816979287 142.3937311365609 0  245.4512147769152 155.7068319139237 0  214.9140854911084 116.3016229600955 0  241.4261562479406 177.9745543740275 0  202.8157779574545 68.56000166221941 0  240.0703975438099 175.788326095019 0  222.1092806876692 145.4935485219417 0  220.9446699547174 129.9892194059113 0  217.7131509102484 129.0121441451285 0  231.966766611991 173.6290727753235 0  244.7035101352062 164.8150950666352 0  215.4589412711449 82.35047797613059 0  218.5358717759109 108.3057574313637 0  210.0910095413371 63.89870618133642 0  207.8879031726656 61.27101234314142 0  219.5945508510063 49.26517889117938 0  204.4640092132492 79.16637174968085 0  219.054165325738 63.24726086273807 0  245.5364828646638 168.1932520030346 0  204.1722248369768 62.21708558088665 0  205.6821920907016 58.50393459316535 0  209.6155639374877 57.86856426712311 0  196.5553895895766 69.81481204083099 0  235.6123608690412 152.8874163252039 0  233.2157615582107 155.2532908181879 0  240.6837858645011 122.4172544901715 0  210.8141135626509 127.8682271622992 0  245.3812170314571 182.2522052029404 0  206.9456715292139 54.99559933887414 0  210.5075513436263 54.0697256538542 0  207.9169085133073 103.1765167571325 0  223.2431750051092 164.070583057325 0  225.7483443677002 162.1151723759482 0  206.0378951001477 96.94148998994152 0  242.6796154699829 175.6597339900036 0  214.6838055972238 146.7252062992904 0  211.9990465678071 115.5576487680909 0  221.4613603554043 78.78973924681317 0  218.3291154698718 77.0769598533563 0  200.3358005877804 107.1120377748188 0  247.4072167499741 149.4171847419639 0  211.6397508657857 39.55684201930068 0  226.8243927196049 72.17619845696734 0  215.354291780634 85.55308818793476 0  236.5600255652378 131.6759521500912 0  226.0129792461303 165.2837912620818 0  218.060680211082 117.0067370946569 0  220.2726382852709 114.6051380114157 0  212.8793579154693 118.3711453694285 0  215.022609143906 99.35520341734289 0  203.0459334752391 85.71272568041367 0  202.8915272398735 55.67723839797077 0  220.5465456567309 139.1747891305704 0  239.6921265383864 169.3260213165692 0  236.6712881821608 168.5826958099534 0  218.0125893802946 141.5012621699478 0  201.3193403438535 110.3399099823547 0  203.3799271438462 107.9393487975089 0  248.1978655115356 165.7601936670729 0  248.8804221900089 169.2105116441819 0  237.1867529048816 147.1869371163321 0  236.7369473929319 176.2832209442509 0  247.3010859001464 162.3677476585113 0  204.3727171343656 110.8209535355564 0  235.7766571132668 128.3537547116865 0  217.8932394506906 150
[...]
<PointData  Vectors="f_12"> 
<DataArray  type="Float64"  Name="f_12"  NumberOfComponents="3" format="ascii">5.6358250104227725e-01 5.6032529392730812e-01 8.8649919158970122e-02  5.6325745247213199e-01 5.5923940920361603e-01 8.8570696065474658e-02  5.6275952298657772e-01 5.5761090014708803e-01 8.8415178251892129e-02  5.6214530868801194e-01 5.5565862405498301e-01 8.8169437509466403e-02  5.5696170731565720e-01 5.3894265275568620e-01 8.6048907667984037e-02  5.5303884792166258e-01 5.2595718738367259e-01 8.4430556550200847e-02  5.5165666108235945e-01 5.2136690326384549e-01 8.3814003501537254e-02  5.4894186083373309e-01 5.1230812137813631e-01 8.2563489098537959e-02  5.4922366837286452e-01 5.1338146645689264e-01 8.2652214926439399e-02  5.5504443921852498e-01 5.3147966945299752e-01 8.6367985255033378e-02  6.0847255403291090e-01 6.6566235711606958e-01 1.2598840378768100e-01  6.3631179512137159e-01 7.1556702502217784e-01 1.4904659778213769e-01  6.9711345145920200e-01 7.6108939453597402e-01 2.3631524211981822e-01  7.5331106300394368e-01 4.9971022067649762e-01 7.0928194340316297e-01  6.0246376353584441e-01 1.5819445389930523e-01 6.0639194303829302e-01  5.0869468304942467e-01 1.6788320576895813e-01 2.0085535826322162e-01  5.1557650942731059e-01 2.4372904682277752e-01 1.7522153349597575e-01  5.9131961516725084e-01 5.5888066388059077e-01 1.8636486041990630e-01  6.5971921153779778e-01 7.1203214708865614e-01 2.1814732484665367e-01  6.8258402372861093e-01 6.0078104046001768e-01 4.3017650735789947e-01  6.8064966621202994e-01 6.5548427642325768e-01 3.4905953705597947e-01  6.8776406035535875e-01 6.8502748059806284e-01 3.2624476583763895e-01  5.7224597006593181e-01 2.8742754908946161e-01 3.8289818145702215e-01  5.0758074477051895e-01 1.0382629665408838e-01 2.3397691020395631e-01  4.9703803751157527e-01 1.5986709513172317e-01 1.5733621778448922e-01  5.0444911364035372e-01 9.6580840005608348e-02 2.2507047142987560e-01  5.1283845577552700e-01 9.3014281886467390e-02 2.6238997285733001e-01  5.2205174423355127e-01 7.9749085880089443e-02 3.1073462133887442e-01  5.2186687951693811e-01 8.0586450901603421e-02 3.0939878068536958e-01  5.2022138069691803e-01 8.7542594002833193e-02 2.9748816888118379e-01  5.4971405052839473e-01 8.3812008817888126e-02 4.3060763709275907e-01  6.1698574344093826e-01 1.2614888333463589e-01 6.8216029789566124e-01  6.7105654122108294e-01 1.8470074113092877e-01 8.2855139878998318e-01  6.9085421826169124e-01 2.1606589131203108e-01 8.5832622027521632e-01  6.9445796182723429e-01 2.2228378001715826e-01 8.6270772026342324e-01  6.3668015546669376e-01 1.4217763320174073e-01 7.4645777891649334e-01  5.9179794580219025e-01 1.0825429043822078e-01 5.9331901996871228e-01  5.3177982661120882e-01 9.1635405664453842e-02 3.5163041548471058e-01  5.4852402576420389e-01 1.0893345774587296e-01 4.1870225297020142e-01  5.6972215238230206e-01 1.2255641274048122e-01 5.0721030467868455e-01  7.1047654371740554e-01 3.9439128273451501e-01 7.5365588995116395e-01  7.0534194233007363e-01 3.8580163015784613e-01 7.4952212763097914e-01  6.1411261979654919e-01 1.8304640575315131e-01 6.4613569258945136e-01  6.3696957806128840e-01 2.2875702793056824e-01 6.8950087263652593e-01  7.2405058659972210e-01 5.0880116991943913e-01 6.4646989755730500e-01  6.8077758100601427e-01 6.2251290953704264e-01 3.8953611160009882e-01  5.6103872010344769e-01 4.9408961711412491e-01 1.4364378509569772e-01  5.5410490515138744e-01 4.4988296712281028e-01 1.5669893837640517e-01  5.1884757679450955e-01 2.6223266059630623e-01 1.7422075532518400e-01  5.0868663273688874e-01 1.3975375297816933e-01 2.1859476461641705e-01  5.4387705694180655e-01 1.1490691398119390e-01 3.8611296237910009e-01  6.3169125926179781e-01 1.6089319394207152e-01 7.2350640709307767e-01  7.1213796673883534e-01 3.0830571880112018e-01 8.3890377805925520e-01  7.5516900242414631e-01 4.4471931681686783e-01 7.7665040257865059e-01  7.7618158186655706e-01 5.4836350088295860e-01 6.7718565113327034e-01  7.8711489438095805e-01 6.6067702815219886e-01 5.3188944633341406e-01  7.7329452742980354e-01 6.7835481720711965e-01 4.8840138240880943e-01  7.2572725316090425e-01 7.5492086870896258e-01 2.9980664236172250e-01  7.1619620309076670e-01 7.6362680389481319e-01 2.7086136048692050e-01  6.6222604963049214e-01 7.3470637086320079e-01 1.9253481944293663e-01  5.6662590371746324e-01 5.6231105209607890e-01 9.7394700926713262e-02  5.5407807629813521e-01 5.2720940770878932e-01 8.7069106618178294e-02  5.5259744444712466e-01 5.2193102376909939e-01 8.6572265403087614e-02  5.4461738363488843e-01 4.9599264640773705e-01 8.1916364814357365e-02  5.3758252257659145e-01 4.7185999325818695e-01 7.8147063778463144e-02  5.4142661604672682e-01 4.8501242701297387e-01 8.0239175273919286e-02  5.4572459221838054e-01 5.0040188316523482e-01 8.1853430816557993e-02  5.4692298555547136e-01 5.0469879195311684e-01 8.2247941475684538e-02  5.4781741203403744e-01 5.0787686611740390e-01 8.2548116746462077e-02  5.4939744875496965e-01 5.1343267958941374e-01 8.3095600887652915e-02  5.4913042661967715e-01 5.1252674994813208e-01 8.2983148499578149e-02  5.5189603623708772e-01 5.2205308984033894e-01 8.4017855727809315e-02  5.5701040209125530e-01 5.3919454204963546e-01 8.5993802307349251e-02  5.5739098318423064e-01 5.4046550511653813e-01 8.6123126530387326e-02  5.5354760821548110e-01 5.2760449137303622e-01 8.4686263407165452e-02  5.6038920255263014e-01 5.5010946919641057e-01 8.7401528952843310e-02  5.6230352139030471e-01 5.5623777620802528e-01 8.8165801425971441e-02  5.6282205461780277e-01 5.5789591739544120e-01 8.8366078887195595e-02  5.6347841487160599e-01 5.5999179354145578e-01 8.8612713862597295e-02  5.6353586909082309e-01 5.6017527036601700e-01 8.8633706981325375e-02  5.6355275315405295e-01 5.6022984558700317e-01 8.8639386067310449e-02  5.6354225696489069e-01 5.6019597663117415e-01 8.8635813611082526e-02  5.6351389276508246e-01 5.6010437259912926e-01 8.8626198661935079e-02  5.6345762578385694e-01 5.5992246770288745e-01 8.8607289915756768e-02  5.6338720117806707e-01 5.5969172393845878e-01 8.8586232041948029e-02  5.6329445147565238e-01 5.5938261035066483e-01 8.8562809870369630e-02  5.6316277633787737e-01 5.5891352143999973e-01 8.8555286095420474e-02  5.6298692088191371e-01 5.5833865109080094e-01 8.8500338618474894e-02  5.6055513182211925e-01 5.5058031581828359e-01 8.7524435979933299e-02  5.5874982571139420e-01 5.4476450160604428e-01 8.6783482363516379e-02  5.5517950653910042e-01 5.3306796982586602e-01 8.5323562844204268e-02  5.5183488248714219e-01 5.2195277294721876e-01 8.3900759825607685e-02  5.5123886843908587e-01 5.1994741808734890e-01 8.3650818039282607e-02  5.4797640439847095e-01 5.0928520439533997e-01 8.1955584387854691e-02  5.7653131573607319e-01 5.9179283268476079e-01 1.0143536433064169e-01  6.6267210426599188e-01 7.4397238380744346e-01 1.8128892185342907e-01  7.2570450815533427e-01 7.5434898565601971e-01 3.0116892901421682e-01  7.5145716152396458e-01 7.1986497704904950e-01 3.9583388808486686e-01  7.6500914738460668e-01 6.4218120461999617e-01 5.3250490971965780e-01  6.9957515332646814e-01 3.0861561402885523e-01 8.0856540005330479e-01  5.2526691031381101e-01 1.2757189175628250e-01 2.9781024253435640e-01  5.4555789747067363e-01 3.9795530397123813e-01 1.7013857052092443e-01  6.3379990539981412e-01 6.7624576791439672e-01 1.9231764836762610e-01  6.5332929262570050e-01 7.0936748166145436e-01 2.0471038772922567e-01  6.6573737392096544e-01 7.0313092582051018e-01 2.4562499668212476e-01  6.8357726420981557e-01 6.6669726292877018e-01 3.4099332772712276e-01  6.4623046039229870e-01 3.8781546745880840e-01 5.7713238463061645e-01  5.2513539613400417e-01 2.5658665740170788e-01 2.0601942435483131e-01  5.0288844987872650e-01 2.0448929217203138e-01 1.5216949086822362e-01  5.3851012032656120e-01 8.4465571758002428e-02 3.7968636782125270e-01  5.6853275915538959e-01 9.1721854446621259e-02 5.0752113035165203e-01  6.7151768529443334e-01 1.8559902704038719e-01 8.2838658776448393e-01  5.4317477300301553e-01 8.4572992175651604e-02 4.0224023554497240e-01  5.3014637494825234e-01 8.4472285319255672e-02 3.4638627530763649e-01  5.8405445803626754e-01 1.3914755274946106e-01 5.5787635622439224e-01  7.1496129730998803e-01 4.2286363197843069e-01 7.3111915549830497e-01  7.1566308501425413e-01 5.7378426552956197e-01 5.4136453690080655e-01  6.0159546071977743e-01 5.8399189594213308e-01 1.9458053145307999e-01  5.0834925804233977e-01 1.7223514086192332e-01 1.9568953132643241e-01  5.1803603516677466e-01 1.2334593392350550e-01 2.6864236967420324e-01  5.8647634173950280e-01 1.2561356240448310e-01 5.6460284122466764e-01  7.8524120208496995e-01 6.2567238765136290e-01 5.8093601446416721e-01  7.8409967305482897e-01 6.6251548545843975e-01 5.2562966355178875e-01  7.5222550645189379e-01 7.2596884055724753e-01 3.8655899226625917e-01  6.9881465510477014e-01 7.5989994270591477e-01 2.4136048353879841e-01  6.0982146675320281e-01 6.5980107415815570e-01 1.3681320495940885e-01  5.3757430098958947e-01 4.7144715438415108e-01 7.8391839029639698e-02  5.5122257560988719e-01 5.1973826289915659e-01 8.3769878833981140e-02  5.5800459132548375e-01 5.4245042454439873e-01 8.6390116710638495e-02  5.6567544954214632e-01 5.6243144329533956e-01 9.3663614197212960e-02  7.0558370118618841e-01 5.7370766380004889e-01 5.1886521437344979e-01  7.3726921774318699e-01 7.4349952252614360e-01 3.3729595226495757e-01  5.5936773277356067e-01 5.4675093499831118e-01 8.7046660836503503e-02  7.4109808628508855e-01 7.4079413851893228e-01 3.4697371323826137e-01  5.6391522196560562e-01 1.1700542192523930e-01 4.7279761809283860e-01  5.3860903732229370e-01 4.7511872119969978e-01 7.8886076579216508e-02  6.3019854559148025e-01 6.9348669126996831e-01 1.5758683113069433e-01  6.8160852577406972e-01 6.1127494449352426e-01 4.0771491871653015e-01  5.3688614295601611e-01 3.6754626867601775e-01 1.6181009397188295e-01  5.1725689709356881e-01 2.6058390042456225e-01 1.6890586345633474e-01  7.3798824837958843e-01 4.2522359319043440e-01 7.7138400185425648e-01  6.9785402690658016e-01 5.3620683713559625e-01 5.5071061210384320e-01  6.8304162130475599e-01 5.8801460502048319e-01 4.4347778618822986e-01  5.3751391961672912e-01 2.5862281607499155e-01 2.5776153670209495e-01  5.4989582633119416e-01 1.2536744305654571e-01 4.0719167496802894e-01  5.3057688732318742e-01 3.4114414393852499e-01 1.5881389120632389e-01  6.7266720077958264e-01 4.8458550022364860e-01 5.5027589343118244e-01  5.1438219333968627e-01 2.4835451918385482e-01 1.6651857732856129e-01  6.8979159903609755e-01 4.8732383169551863e-01 5.9258368598411471e-01  6.8301962625611878e-01 5.6392696697785460e-01 4.7601645208076498e-01  6.8155991760150847e-01 3.9989904941522164e-01 6.7263242564268666e-01  5.5298051318675889e-01 5.2519049310178201e-01 8.4998929259279224e-02  5.5951244228974595e-01 5.4470066031338282e-01 8.9442306188352180e-02  5.5006527073214784e-01 5.1597169935014575e-01 8.3252644673671730e-02  5.5450034364282574e-01 5.2953775581217066e-01 8.6260777414700451e-02  5.4764550222107511e-01 5.0793513488201580e-01 8.2019979472035209e-02  5.6888403976635293e-01 5.7053003991496509e-01 9.6639618268206537e-02  5.6174658691421187e-01 5.5034631809657497e-01 9.1724352827244310e-02  5.8169706289964185e-01 6.0235145736562490e-01 1.0763593819956264e-01  5.7184197823281691e-01 5.7716505634510107e-01 1.0003192035869889e-01  5.9712039857894073e-01 6.3603404664428675e-01 1.2220228833263991e-01  5.4998804179488736e-01 8.8810259783051709e-02 4.2821035400390384e-01  5.2637096893960078e-01 3.2289969599651364e-01 1.5712785295108786e-01  6.0982330783537109e-01 6.6156731825634307e-01 1.3373136316767328e-01  6.2962289364424540e-01 6.9320935360824709e-01 1.5574626403486944e-01  5.5398524198484467e-01 5.2908766120410189e-01 8.4844627589441696e-02  5.5536808345699296e-01 5.3130337332897859e-01 8.7573379122801220e-02  5.6265928470975646e-01 5.5184548083961427e-01 9.3346269747603655e-02  6.6172879207324375e-01 3.4624801048897785e-01 6.7053361989041105e-01  6.3428462963819865e-01 2.6446655287375198e-01 6.5582287178787224e-01  5.1218682091251821e-01 2.3364420967944283e-01 1.6856126652032205e-01  5.6294255796838055e-01 5.5822063387286402e-01 8.8463262901407630e-02  5.4967625153941024e-01 5.1342201542203736e-01 8.4125075290923279e-02  5.5445430807869656e-01 5.2755506058765411e-01 8.7799346956471833e-02  5.7196927895984029e-01 5.7635463108251650e-01 1.0117702798601468e-01  5.6148574541200813e-01 4.6186139241277951e-01 1.7357331181261215e-01  6.0510205501694103e-01 5.8522406751262279e-01 2.0493936827608314e-01  6.4282359810812395e-01 7.1181460376648820e-01 1.6996583151128841e-01  6.6421746053142616e-01 7.3303746384289670e-01 1.9862522472960176e-01  6.4955050766394540e-01 7.1822537199608361e-01 1.8007142152100439e-01  6.8492237673229872e-01 7.4659838467514839e-01 2.2954650197910684e-01  5.0957094582976414e-01 1.7735132548531243e-01 1.9739771509250567e-01  5.1037150886946225e-01 1.6653368554232326e-01 2.0811979282851484e-01  5.1921229814699488e-01 1.3323061230150166e-01 2.6749816052852243e-01  5.3152822016850465e-01 8.7099734062453027e-02 3.4685121871123858e-01  5.6140988078528764e-01 5.4724901401250658e-01 9.3338265095523412e-02  5.4404257620363927e-01 4.9436367941587056e-01 8.1265737784705971e-02  6.1115172588981681e-01 2.3841893436098416e-01 5.9118629678955925e-01  5.7877071899381294e-01 1.8790372654691975e-01 4.9767834579469650e-01  6.5366764901539298e-01 3.3556176949148087e-01 6.5705415306152914e-01  5.8675734742483321e-01 5.3333698584317435e-01 1.9547958019537021e-01  5.5365489731994988e-01 4.3727780061029553e-01 1.6586065704841563e-01  5.4696855838495495e-01 5.0573166219439492e-01 8.1597313317265663e-02  5.4624312450378365e-01 5.0304164445175514e-01 8.1423622737481480e-02  5.4765227200826605e-01 5.0775609701720681e-01 8.2126356181724508e-02  5.4781086989974614e-01 5.0809950279570615e-01 8.2352440289100728e-02  5.4996982487723245e-01 5.1543218632275223e-01 8.3296321883307947e-02  5.5051337866760330e-01 5.1717066290349500e-01 8.3611767056452402e-02  5.4804587133975069e-01 5.0873051585270423e-01 8.2592203505105516e-02  5.5094835702636646e-01 5.1857630117562081e-01 8.3849409371336406e-02  5.4829555698032739e-01 5.0945853176616029e-01 8.2800923240308105e-02  5.5125288060527688e-01 5.1957895629684070e-01 8.3998893249294840e-02  5.5380050054559471e-01 5.2824029057450406e-01 8.4964406267196396e-02  5.5402215467978799e-01 5.2899795455844323e-01 8.5040351795598490e-02  5.5630033691922420e-01 5.3662251363670810e-01 8.5904322770464489e-02  5.5638430344410239e-01 5.3692902108958573e-01 8.5912802435533731e-02  5.5140924606177877e-01 5.2011881309501840e-01 8.4054434245376924e-02  5.1023839512369074e-01 2.0869064114723160e-01 1.7860851759364682e-01  5.2376563329353765e-01 1.2809196455771163e-01 2.9061254803864461e-01  5.4626218978215435e-01 1.1732609732881480e-01 3.9600823008003971e-01  5.5568543994784048e-01 1.1879381967165117e-01 4.3672660005434721e-01  5.9277538224467963e-01 1.3394263759672623e-01 5.8573997279706302e-01  6.0902972266162103e-01 1.4766561303893808e-01 6.4262225781005422e-01  6.5642657429428453e-01 2.0392085261308290e-01 7.7284399266266401e-01  6.7511855948841082e-01 2.3781298733431730e-01 8.0335920644177528e-01  7.1751171565505822e-01 3.3530551706621481e-01 8.2385319685068814e-01  7.3081548399364038e-01 3.7962814905168046e-01 8.0661655718680081e-01  7.0283001937453227e-01 2.9374164723706669e-01 8.2957401075048043e-01  7.5556896071357305e-01 4.8035283386287342e-01 7.3500664984272623e-01  7.6150768351278497e-01 5.2153087431313339e-01 6.9251603102120207e-01  6.2928210818969676e-01 6.0907755611432390e-01 2.5659474526664794e-01  5.5837664500845474e-01 5.4349193985684774e-01 8.6683452177127474e-02  6.9655165922646101e-01 7.5129671254672126e-01 2.4838206737228580e-01  7.1575608033814020e-01 7.5217007758168231e-01 2.8582828842975888e-01  7.0254315726459626e-01 7.5240521102897295e-01 2.5933099293211248e-01  7.3023967012866831e-01 7.4704174874708362e-01 3.1984449916401569e-01  7.4164723152627021e-01 7.3647082214920534e-01 3.5505784522014450e-01  7.1696574563733939e-01 7.5286043392569169e-01 2.8709743441295815e-01  7.7924609447701876e-01 5.7503460658356864e-01 6.4519123679100976e-01  7.4287287219351272e-01 7.3627661091034446e-01 3.5726593864153811e-01  5.4501528091614004e-01 4.9802342127829047e-01 8.1570149962141208e-02  5.8287929453053255e-01 6.0288958489602007e-01 1.1086605686496663e-01  5.7028112039316115e-01 5.7101004701601443e-01 1.0067287859876316e-01  5.5279045466115428e-01 5.2490562333831337e-01 8.4511963383229471e-02  7.6967961929119066e-01 5.9624511667261226e-01 6.0364474196185980e-01  5.6168111501797746e-01 5.5424304861234508e-01 8.7926249317549332e-02  6.6356769243957991e-01 3.2001829553677186e-01 7.0149175865504410e-01  5.6044593932436193e-01 5.5027909082820647e-01 8.7436500798580702e-02  5.5268408570011940e-01 5.2133561131799599e-01 8.7296707278455440e-02  6.8669090817009881e-01 7.4784097621882406e-01 2.3185171183069592e-01  7.0133486572802894e-01 7.5359270402465317e-01 2.5518229191189884e-01  5.5604868682279340e-01 5.3595826701011950e-01 8.5663273733621578e-02  5.5822570032441143e-01 5.4297972872312883e-01 8.6640083772056162e-02  6.0971900013180402e-01 5.7505038015860854e-01 2.3094803697965627e-01  6.9186215985942934e-01 2.7429685620725197e-01 8.2006104519647605e-01  5.6339073500779757e-01 1.9342351185524545e-01 4.2603376089469769e-01  5.3803479510552554e-01 1.6231560275849086e-01 3.3597444422565825e-01  4.9968136518373557e-01 1.4386781716836514e-01 1.7770219101844861e-01  6.5143556634356259e-01 6.1965945061866612e-01 3.1163074639759303e-01  5.7581473249745474e-01 2.6860207442217682e-01 4.1609148053740153e-01  5.6002937719521617e-01 5.4886827233918667e-01 8.7329449067180528e-02  5.5769339506956506e-01 1.5234289547040994e-01 4.3151658595563286e-01  5.2291422376766483e-01 1.3372149246191353e-01 2.8742078428667117e-01  5.1405077478229821e-01 1.5870029559646440e-01 2.3153488208432946e-01  7.1296866323391084e-01 4.4308853246549168e-01 7.0194496527210992e-01  5.4561479424419024e-01 5.0036080347447665e-01 8.1541454617677187e-02  5.4560008096646606e-01 5.0009940759743088e-01 8.1699727936053387e-02  6.8103666546402042e-01 7.5371615838044292e-01 2.1137574611730378e-01  7.1849893377253948e-01 7.5708282990524356e-01 2.8368664797211740e-01  5.6323602390622107e-01 5.5920413920376444e-01 8.8533940747419770e-02  5.0961473797604484e-01 1.2298546901061241e-01 2.3445778604930198e-01  5.0383532862544977e-01 1.4100969564729268e-01 1.9819944037376755e-01  5.7918628072429390e-01 1.2477555168974029e-01 5.3449548979057726e-01  5.4680949513893429e-01 5.0424564405220706e-01 8.2248155786293908e-02  5.4627372611411229e-01 5.0229261889351229e-01 8.2099481859114309e-02  5.1514639078097513e-01 1.4086617333097134e-01 2.4505083872934971e-01  5.6144012838815571e-01 5.5345862750190067e-01 8.7842907248068994e-02  5.5344714990730992e-01 5.2397164706146604e-01 8.7566128058225542e-02  7.6862778429151590e-01 5.6466569246147036e-01 6.4549222585024690e-01  6.4614868797661995e-01 6.3754066937760490e-01 2.7462658644117144e-01  6.6752663698198089e-01 6.0854913730608828e-01 3.7449239011748681e-01  6.6429651164335091e-01 2.1175569514125453e-01 7.9052440997547857e-01  5.4932050423352052e-01 5.1338503308997685e-01 8.2892430010193321e-02  5.6676854321799952e-01 9.3052732355424606e-02 4.9846973019165974e-01  6.7996222346068758e-01 6.3724237104124004e-01 3.7226746951035639e-01  5.6811334442681305e-01 4.8032724143265804e-01 1.8019201852617139e-01  6.2151902169222228e-01 6.8305281156803033e-01 1.4428878114340632e-01  5.4872374250245970e-01 5.1096490785995485e-01 8.2948249317473008e-02  7.6931348778113884e-01 6.2760431719848631e-01 5.5874517676132152e-01  7.6580352361813930e-01 5.6537234371005729e-01 6.4097362145195602e-01  7.7056605468883355e-01 6.4740471679562461e-01 5.3143620624825150e-01  5.3129933051367073e-01 1.2289203400119914e-01 3.2699245902351476e-01  5.6484943210590588e-01 4.8294106699572498e-01 1.6572281142923534e-01  5.2038396272382903e-01 1.0727706244771021e-01 2.9158658163722745e-01  5.9675708661