<?xml version="1.0"?>
<VTKFile type="UnstructuredGrid"  version="0.1"  >
<UnstructuredGrid>
<Piece  NumberOfPoints="600" NumberOfCells="1069">
<Points>
<DataArray  type="Float64"  NumberOfComponents="3"  format="ascii">239.8 188 0  250.2 180 0  258.2 172.4 0  257 169.4 0  259.9 157.4 0  258.7 150.3 0  261 143.5 0  251.7 144.4 0  250 138.7 0  247 138.1 0  245.2 130.8 0  247.3 126.4 0  242.7 118.6 0  231.2 107.7 0  226 102.4 0  226.5 93.90000000000001 0  224.5 91.19999999999999 0  224.5 84.09999999999999 0  234.5 73.80000000000001 0  228.4 68.90000000000001 0  230 70 0  233.4 68 0  222.7 61.5 0  220.6 45.5 0  223.4 49.40000000000001 0  224 47 0  221.8 43.09999999999999 0  221 38.40000000000001 0  219.5 38.5 0  219.4 41.69999999999999 0  217.1 36.90000000000001 0  209.7 36 0  209.5 31.69999999999999 0  205.1 29.90000000000001 0  201.5 30.40000000000001 0  199.2 38.69999999999999 0  201.8 41.40000000000001 0  194.8 53.80000000000001 0  196.1 57.69999999999999 0  193 59 0  191.4 66.09999999999999 0  193.5 66.5 0  194.1 64.40000000000001 0  195.6 64.69999999999999 0  195.4 72.40000000000001 0  199.5 77.30000000000001 0  197.7 86.90000000000001 0  200.6 87.5 0  201.5 91 0  198 94.80000000000001 0  198.6 100 0  197.3 105.4 0  198 109.5 0  197 112.7 0  198.3 116.1 0  201.3 122 0  207.2 121 0  208.1 126.7 0  205.6 127.9 0  209.1 134.9 0  210.9 144.4 0  210.1 147.9 0  213 148.4 0  215.4 149.3 0  215.1 152.8 0  219.9 159.7 0  220.3 163.2 0  218.7 164.9 0  219.9 166.7 0  221.9 169.7 0  220 170.3 0  224.9 174.7 0  229.8 177.4 0  229.7 181 0  228 172.9 0  239 178 0  240.4 180 0  239 181.5 0  241.2 185.9 0  242.95 187.99 0  241.113414658978 187.995830429654 0  242.142964269982 187.9925620181905 0  243.6619187087475 187.2054164851183 0  244.631513060971 186.1368566403919 0  245.9520480703466 184.6815359886801 0  247.7505449816197 182.6994683581873 0  252.8666666668011 177.466666666539 0  255.5333333336077 174.9333333330727 0  257.9666666666661 165.4000000000025 0  258.9333333333339 161.3999999999974 0  259.3000000000018 153.8500000000108 0  259.849999999995 146.9000000000149 0  256.350000000011 143.9499999999989 0  250.8500000000015 141.5500000000051 0  246.1000000000042 134.450000000017 0  245.0000000000049 122.5000000000082 0  239.8250000000041 115.875000000004 0  236.9500000000083 113.1500000000079 0  234.0750000000041 110.4250000000039 0  228.6000000000041 105.0500000000042 0  226.25 98.15000000000002 0  224.5 87.65000000001388 0  227.8333333333301 80.66666666667 0  231.1666666666644 77.23333333333571 0  232.2500000000014 71.90000000000116 0  230.8999999999995 68.45000000000009 0  225.5500000000108 65.20000000001409 0  222.9333333333329 57.46666666667507 0  223.1666666666663 53.43333333333877 0  218.2500000000016 39.30000000000339 0  213.4000000000277 36.45000000000337 0  200.3500000000025 34.54999999999097 0  199.4666666666726 45.53333333332282 0  197.1333333333385 49.66666666665756 0  193.5499999999978 61.6999999999891 0  193.3999999999962 69.24999999999406 0  197.4499999999954 74.84999999999454 0  198.6000000000007 82.09999999999631 0  199.7500000000014 92.8999999999985 0  198.2999999999997 97.39999999999726 0  197.950000000001 102.699999999996 0  199.7999999999944 119.049999999989 0  204.2499999999946 121.5000000000009 0  207.6499999999987 123.8499999999919 0  207.35 131.4 0  209.9999999999998 139.649999999999 0  217.4999999999938 156.249999999991 0  223.4 172.2 0  234.349999999995 179.5000000000016 0  243.6879031604435 137.0140197666175 0  200.5383884465266 74.3488835611292 0  236.0631303447202 117.0934887033495 0  255.2860706566257 162.4962097513293 0  210.288597171716 124.9641969758756 0  200.5494091764226 101.6938959209836 0  221.0463142825589 155.4583368622661 0  213.2458552033902 137.0182369603261 0  202.5715495252679 76.72215432732189 0  203.3954031521662 88.63888283314805 0  204.2685850489914 91.3771816532193 0  227.6002395557545 108.6285485308707 0  203.628067965887 73.80056467640915 0  205.5882193517793 76.19298591547215 0  219.3893731065793 59.36381842571261 0  222.6962970705901 100.2685345181304 0  206.2147206748961 89.23684943534887 0  224.5717795045128 68.90112930058935 0  207.1505150846513 91.97409496002633 0  206.6973804802006 73.20614062920998 0  209.0198262461606 75.84435446174592 0  204.6828826698789 70.78585325419728 0  244.5505030757118 140.1958289722003 0  241.2713205316759 139.2760911012237 0  242.0887623359319 142.523888210035 0  238.8201809392432 141.5810446831215 0  239.6254755922404 144.8663288044098 0  238.0282380951174 138.3361101328854 0  235.5650201404635 140.6403522599634 0  234.7868703265066 137.3765638391416 0  232.3671992655526 139.7040340002533 0  231.5735594060041 136.4371341666237 0  203.6025996895933 45.13245413868078 0  209.0094500142995 89.77916893533093 0  234.0048963149566 134.0619286436701 0  230.7388584519252 133.0932019642386 0  256.0202376970822 152.4353991158102 0  233.1239077827668 142.9168616681826 0  229.9476468053365 142.0041066209365 0  207.8316386186595 70.1760146256688 0  205.8080150778045 67.77328389450008 0  210.1255397865818 92.58553759086743 0  249.9530000513888 175.7831884132348 0  230.7520925362455 145.2114145624654 0  227.5614746466729 144.2879078440436 0  226.855634298717 141.1029513419209 0  221.109901317114 86.07738557802102 0  221.3898452401857 82.41394785245797 0  233.1906280944642 130.7538222264552 0  229.849944657733 129.8156996791429 0  227.4514186000422 132.1240250470279 0  226.5693510741891 128.7503487535618 0  208.0732626511005 94.86195720558288 0  211.0579654481564 95.54875779444082 0  209.0041892644107 97.86214677695602 0  216.7276956906574 41.503774594868 0  224.4517166451922 143.3327513982825 0  222.7890579510523 161.0597281586643 0  209.0698801997012 67.10609773523754 0  206.9141710660066 64.58868367949086 0  211.5265666272545 70.15591236789595 0  218.2872405225432 83.97244872861398 0  207.7311279855657 86.71297189445447 0  242.9081583239214 145.8040728889821 0  240.4621480942806 148.1601866910276 0  243.7562457682554 149.0907552716282 0  241.3145175595932 151.4726760652338 0  244.57940289053 152.3666461928266 0  242.1615185950008 154.7794567484269 0  238.8718789959482 153.837018554675 0  239.7122407256576 157.1523621063041 0  236.4289375384117 156.2070529629317 0  237.2412111497984 159.5248795948406 0  240.5638486223294 160.4901132255754 0  238.1023772270576 162.8725976094984 0  241.406699334305 163.8359650846702 0  238.9630278156374 166.2175426435888 0  234.7361516891476 161.8928266488476 0  213.124654294145 93.56046727196781 0  212.0434836741439 98.5447165103807 0  209.9504013355788 100.9044854564887 0  213.0958854424699 101.5871381629478 0  210.9302285957408 103.9580876602797 0  214.0010858928389 104.7096094485587 0  211.9141605791952 107.0615795921763 0  214.9890206858068 107.8102538193681 0  212.9269247290344 110.1901972673309 0  216.0786784436673 110.8721476340726 0  209.7617142319936 109.4041944495815 0  213.932211035267 113.2627867337288 0  217.0813395790477 113.941453344218 0  218.441750941724 80.63655841437071 0  242.2412500877879 167.1781012200828 0  229.2280100589433 126.5393356137107 0  225.9203624138538 125.4446005931909 0  223.3571983269889 127.7265579015054 0  222.6136526124249 124.535547281476 0  225.3056527306165 122.1016033222114 0  220.3254947810712 126.7409252226328 0  201.0777098578984 116.3274181811247 0  219.7857338015156 123.3740225787907 0  228.3312248450329 147.5116593523427 0  223.7608055035202 140.2236832285434 0  221.3299816979287 142.3937311365609 0  245.4512147769152 155.7068319139237 0  214.9140854911084 116.3016229600955 0  241.4261562479406 177.9745543740275 0  202.8157779574545 68.56000166221941 0  240.0703975438099 175.788326095019 0  222.1092806876692 145.4935485219417 0  220.9446699547174 129.9892194059113 0  217.7131509102484 129.0121441451285 0  231.966766611991 173.6290727753235 0  244.7035101352062 164.8150950666352 0  215.4589412711449 82.35047797613059 0  218.5358717759109 108.3057574313637 0  210.0910095413371 63.89870618133642 0  207.8879031726656 61.27101234314142 0  219.5945508510063 49.26517889117938 0  204.4640092132492 79.16637174968085 0  219.054165325738 63.24726086273807 0  245.5364828646638 168.1932520030346 0  204.1722248369768 62.21708558088665 0  205.6821920907016 58.50393459316535 0  209.6155639374877 57.86856426712311 0  196.5553895895766 69.81481204083099 0  235.6123608690412 152.8874163252039 0  233.2157615582107 155.2532908181879 0  240.6837858645011 122.4172544901715 0  210.8141135626509 127.8682271622992 0  245.3812170314571 182.2522052029404 0  206.9456715292139 54.99559933887414 0  210.5075513436263 54.0697256538542 0  207.9169085133073 103.1765167571325 0  223.2431750051092 164.070583057325 0  225.7483443677002 162.1151723759482 0  206.0378951001477 96.94148998994152 0  242.6796154699829 175.6597339900036 0  214.6838055972238 146.7252062992904 0  211.9990465678071 115.5576487680909 0  221.4613603554043 78.78973924681317 0  218.3291154698718 77.0769598533563 0  200.3358005877804 107.1120377748188 0  247.4072167499741 149.4171847419639 0  211.6397508657857 39.55684201930068 0  226.8243927196049 72.17619845696734 0  215.354291780634 85.55308818793476 0  236.5600255652378 131.6759521500912 0  226.0129792461303 165.2837912620818 0  218.060680211082 117.0067370946569 0  220.2726382852709 114.6051380114157 0  212.8793579154693 118.3711453694285 0  215.022609143906 99.35520341734289 0  203.0459334752391 85.71272568041367 0  202.8915272398735 55.67723839797077 0  220.5465456567309 139.1747891305704 0  239.6921265383864 169.3260213165692 0  236.6712881821608 168.5826958099534 0  218.0125893802946 141.5012621699478 0  201.3193403438535 110.3399099823547 0  203.3799271438462 107.9393487975089 0  248.1978655115356 165.7601936670729 0  248.8804221900089 169.2105116441819 0  237.1867529048816 147.1869371163321 0  236.7369473929319 176.2832209442509 0  247.3010859001464 162.3677476585113 0  204.3727171343656 110.8209535355564 0  235.7766571132668 128.3537547116865 0  217.8932394506906 150
[...]
<PointData  Vectors="f_12"> 
<DataArray  type="Float64"  Name="f_12"  NumberOfComponents="3" format="ascii">7.9091549776197823e-01 7.2097863957242203e-01 4.4322585435552853e-01  7.9396367061390172e-01 6.9760137632611308e-01 4.8238167815518807e-01  7.9546169354490259e-01 6.8934024151264839e-01 4.9643137376148594e-01  7.9517281600905743e-01 6.9088278147983606e-01 4.9380421023663340e-01  7.9025612652648092e-01 7.1604720708898850e-01 4.5019839355009661e-01  7.8493263442173766e-01 7.3670724816909516e-01 4.1230303377648059e-01  7.8230720754564498e-01 7.4687275315124535e-01 3.9342550084138656e-01  7.7902020720918574e-01 7.4844663607627648e-01 3.8727239366284688e-01  7.6943966939377473e-01 7.6119580363203732e-01 3.5582452239169376e-01  7.6314722721809969e-01 7.6706078892242002e-01 3.3846858149033815e-01  7.3184243650796676e-01 7.8924473396093775e-01 2.5809475422225053e-01  7.1999701813293004e-01 7.9471101708641023e-01 2.3002555796159677e-01  7.1457160542295117e-01 7.9646333371261113e-01 2.1789361273539742e-01  7.6866318037481374e-01 6.3726348775288233e-01 5.4391788718633904e-01  7.4338012091452432e-01 3.9293152591468822e-01 8.1386588136784221e-01  6.7112276490484291e-01 1.9280176193502943e-01 8.2323002944802581e-01  6.4372727717471356e-01 1.5320917303085860e-01 7.6267715803973279e-01  5.7897589093805857e-01 9.3724589726529473e-02 5.5040671731838342e-01  5.7972675420955089e-01 9.1024519867419343e-02 5.5557673097854254e-01  5.4508466292131375e-01 8.8322839540388373e-02 4.0515043258477951e-01  5.5694093819841606e-01 8.6615244669484157e-02 4.5907056267375346e-01  5.6208587769344753e-01 8.3131326534801597e-02 4.8613425745424294e-01  5.2605803533680640e-01 1.7543448008359536e-01 2.7267532196006755e-01  5.8844825607391904e-01 4.9901390406795892e-01 2.3771725143770159e-01  6.3157634872415758e-01 4.6616664061754148e-01 4.3668870782817126e-01  5.8521751384916132e-01 5.1779013340600455e-01 2.0857398774566702e-01  5.6967486904440423e-01 4.8050060598837585e-01 1.8651763897275922e-01  5.4014830869827579e-01 4.2779060636059724e-01 1.2487646908675791e-01  5.4151382087301581e-01 4.2911889068521086e-01 1.2862970342877028e-01  5.5371205062842266e-01 4.4508921539905633e-01 1.5934085957577887e-01  5.1589855614861546e-01 3.1752613479369612e-01 1.2138383245795985e-01  5.0606645311865295e-01 1.8790711282597425e-01 1.7529903733564514e-01  5.0308736855548919e-01 1.0929519823775759e-01 2.1270799834753190e-01  5.0454092118688898e-01 9.1646165156583359e-02 2.2917327511919153e-01  5.0489394918713848e-01 9.0988095512528164e-02 2.3112524574580720e-01  5.0992647487756204e-01 1.8922259134002489e-01 1.9044868361869891e-01  5.4236240877674469e-01 3.1656532618424416e-01 2.2746112969148097e-01  6.6426421885422449e-01 3.7390674459274209e-01 6.5350428665999116e-01  6.0841978061906832e-01 2.3821822324719166e-01 5.8240207983700232e-01  5.7312033244431937e-01 1.7724552004242278e-01 4.8654607532537303e-01  5.0770492552912183e-01 1.4788667502329222e-01 2.1235415885870881e-01  5.0863706230510453e-01 1.4865944129179098e-01 2.1570588879464178e-01  5.4110691586683213e-01 1.6285487222844999e-01 3.5078709929122764e-01  5.3084025846350580e-01 1.6116437909726955e-01 3.0526441060285597e-01  5.0018291903354906e-01 1.3627577660989829e-01 1.8706505503983284e-01  5.0972119665624216e-01 1.0409294692647790e-01 2.4325819435246746e-01  5.6736846425521070e-01 8.9822339727589434e-02 5.0615677210997467e-01  5.8062605440247839e-01 1.0095726110421896e-01 5.5439207366345222e-01  6.4905586782585356e-01 1.7099224500513752e-01 7.6658133821992958e-01  7.1926987405971310e-01 3.0234917409175577e-01 8.5570306657891615e-01  7.5705609040175115e-01 4.3669825840115795e-01 7.8622212855781914e-01  7.7834287731753060e-01 5.9281216037168638e-01 6.1914585089609975e-01  7.7533702001640625e-01 6.8039155707039256e-01 4.8867083319535570e-01  7.6741801102503604e-01 7.2998095413243103e-01 4.0280460855820227e-01  7.5817128346725504e-01 7.5945925313724838e-01 3.4449129970055475e-01  7.4314184303673303e-01 7.8581450722232349e-01 2.8182352754942275e-01  7.3416384466384133e-01 7.7762524175936620e-01 2.7988073141321618e-01  6.9188600840703707e-01 7.8334621397485882e-01 1.9283266833549079e-01  6.8412663966913656e-01 7.8188224725663880e-01 1.7894065922152064e-01  6.7980245185147792e-01 7.8122247239597620e-01 1.7047206372728527e-01  7.0492737106805514e-01 7.9053679305138591e-01 2.0867769769137545e-01  7.1001527085967686e-01 7.9165999748872429e-01 2.1674252567127528e-01  7.1441785647535549e-01 7.9106709254050511e-01 2.2541109020518954e-01  7.2781613202803586e-01 7.8888869087765945e-01 2.5180602103405586e-01  7.4140054859253812e-01 7.8532681589015063e-01 2.7935055954553728e-01  7.6475628300385878e-01 7.6909597261030194e-01 3.3742589444723153e-01  7.7212918960018173e-01 7.6214659918345184e-01 3.5759171417873897e-01  7.7370292694221710e-01 7.6099905553648184e-01 3.6129754890246030e-01  7.7506276675668362e-01 7.5885063060659641e-01 3.6629470928355917e-01  7.7752239749219454e-01 7.5404728586672287e-01 3.7674073235694433e-01  7.7691288095312416e-01 7.5598072292133434e-01 3.7298835813659914e-01  7.8165875424586795e-01 7.4365586711724896e-01 3.9784996362021163e-01  7.8936231550893710e-01 7.1993061732458707e-01 4.4326748608807759e-01  7.8979874855917476e-01 7.1925426829076911e-01 4.4477139298511748e-01  7.8460940351618536e-01 7.3375379772200400e-01 4.1660944619026824e-01  7.9216343296670844e-01 7.0609900139095128e-01 4.6754604265758903e-01  7.9227074757057792e-01 7.0841695947817096e-01 4.6407816048844214e-01  7.9197524920143614e-01 7.1153865210427802e-01 4.5896183237273391e-01  7.9119870080476140e-01 7.1862402114736990e-01 4.4717978261095942e-01  7.9108224568615748e-01 7.1961459492572166e-01 4.4551875897027199e-01  7.9100545338103045e-01 7.2023577750605694e-01 4.4447389809355270e-01  7.9104983685457053e-01 7.1987562607193034e-01 4.4507968345040599e-01  7.9117025302730404e-01 7.1889872643579655e-01 4.4672160946180900e-01  7.9141485496816122e-01 7.1691700084494925e-01 4.5004939877612110e-01  7.9189872691685270e-01 7.1307184996733486e-01 4.5650203474813816e-01  7.9274918240047931e-01 7.0644882318087088e-01 4.6758856996697851e-01  7.9489474075326694e-01 6.9165799528058558e-01 4.9236344682046890e-01  7.9537641207212584e-01 6.8936594377495852e-01 4.9631344906774000e-01  7.9406176822582319e-01 6.9719999392451071e-01 4.8307321389746438e-01  7.9233734203026263e-01 7.0625697953945732e-01 4.6745026826981811e-01  7.8799669258049276e-01 7.2522167260229187e-01 4.3356075665492200e-01  7.8278159427783489e-01 7.4486216170012975e-01 3.9712390305002387e-01  7.8215517440670623e-01 7.4601686374471821e-01 3.9462471676455579e-01  7.7339156827594435e-01 7.5642255732653052e-01 3.6814056135860174e-01  7.4813247534473248e-01 7.7915554790397712e-01 2.9872915592202831e-01  7.1477558001946262e-01 7.9661047564222343e-01 2.1796616640987698e-01  7.2316126779096768e-01 7.9023874819936779e-01 2.4240062636011789e-01  7.3988327635094653e-01 7.6798147802515071e-01 3.0403309770429660e-01  7.5792107330383796e-01 7.1848047543641069e-01 4.0756273336195314e-01  7.6542447708821792e-01 5.3112796149855390e-01 6.8530999143404681e-01  7.0285465491629917e-01 2.5797573362781234e-01 8.5862650932779094e-01  6.0673635242011603e-01 1.1401656170508838e-01 6.5173190631757294e-01  5.7176376614987878e-01 8.7572933840648653e-02 5.2372314339540182e-01  5.7755139900811381e-01 8.9786006279377037e-02 5.4712158227342811e-01  5.7453528451907487e-01 8.9585372365057231e-02 5.3398481185578295e-01  5.5878955904927385e-01 8.5246531090775138e-02 4.6890050486228563e-01  5.1575795156774007e-01 1.0934906807973603e-01 2.6733798630279842e-01  5.7277800437013959e-01 2.6417555654986563e-01 4.0835249646725563e-01  6.1682854911623208e-01 3.7060038680905966e-01 4.8785503459944651e-01  5.2855498023430880e-01 3.6375386175236063e-01 1.3309906135005778e-01  5.1021876571647662e-01 2.7253674114927134e-01 1.3286073507923063e-01  5.0381700714255884e-01 1.2402155694398488e-01 2.0718012793173440e-01  6.2787132487948749e-01 5.1108729186868929e-01 3.6939762605828669e-01  6.7591038010663018e-01 5.0128079577701290e-01 5.3895110090875120e-01  5.6023040078196740e-01 1.7077033087129206e-01 4.3218402640140974e-01  5.0540808900994039e-01 1.4581100293163768e-01 2.0373143888305109e-01  5.0004451466787458e-01 1.2278934929713931e-01 1.9360441825851049e-01  5.4196871756323728e-01 8.7874045680299620e-02 3.9292816896302235e-01  6.9621851495618015e-01 2.4992632732762207e-01 8.4621144634801870e-01  7.3676080290332491e-01 3.5534444417850036e-01 8.3927691491886336e-01  7.7248317938281885e-01 5.2712419984724512e-01 6.9904365761364484e-01  7.4857091939486176e-01 7.7819405813349607e-01 3.0162103539609303e-01  7.4181036596725036e-01 7.8270565752421450e-01 2.8462869351873221e-01  7.1239153515767317e-01 7.8320925691891818e-01 2.3307912569084682e-01  6.8037710281711483e-01 7.8085736344339018e-01 1.7226039985791144e-01  6.8994215702366768e-01 7.8596561664160980e-01 1.8534863994908191e-01  7.5262290269512155e-01 7.7910908329720285e-01 3.0540910225189360e-01  7.8058957094675141e-01 7.4633903610640995e-01 3.9240600516463414e-01  7.9049761370128346e-01 7.1526550290478885e-01 4.5168552292673991e-01  7.5453549466840808e-01 7.7442649874753711e-01 3.1530444438455801e-01  5.0130034858167072e-01 1.1835625005910003e-01 2.0100563946712993e-01  7.2947896242607679e-01 7.8376469062072163e-01 2.6294358581307881e-01  7.9311671929825811e-01 7.0170588664746159e-01 4.7523066974872630e-01  7.0403260331293871e-01 7.8396384417467735e-01 2.1625344615307815e-01  7.6558427512088667e-01 4.8116790557349420e-01 7.4707421518295947e-01  7.5680728012814336e-01 7.7521127182962768e-01 3.1728454171963899e-01  6.8740905861926116e-01 7.8484610247800379e-01 1.8163089696372908e-01  5.0847425059995388e-01 1.0387873187283771e-01 2.3845000970156507e-01  6.0733269571278614e-01 1.2243891700453914e-01 6.4864157215563079e-01  6.4797624503115658e-01 1.6630463499873793e-01 7.6863487956448828e-01  7.6945674138631504e-01 5.9891540194471793e-01 5.9939987976117903e-01  5.0118098830915392e-01 1.1937740705906322e-01 1.9977472326512036e-01  5.0736948097377077e-01 1.0424231966995237e-01 2.3359644822932463e-01  5.5155095560782963e-01 2.2936050714648118e-01 3.4462568149035250e-01  7.2199049470955723e-01 3.1213552337900319e-01 8.5245830793121902e-01  6.1565507960131560e-01 1.2808436599393475e-01 6.7819099541932626e-01  5.2475134013996505e-01 9.5885682632899302e-02 3.1241105932160251e-01  6.5151477940196401e-01 1.6925605763136992e-01 7.7863242141816791e-01  5.0089300567012729e-01 1.2125906839198244e-01 1.9736111418041274e-01  5.0779938861258067e-01 1.0264833963827186e-01 2.3605290351976588e-01  5.0097173775499737e-01 1.4079625551542943e-01 1.8681547159470982e-01  7.6445231734279795e-01 7.6559128543343058e-01 3.4254667094998370e-01  7.5792544574917664e-01 7.7155436322965798e-01 3.2453741594238233e-01  7.6679836453562078e-01 7.6238226416055654e-01 3.5062673479940587e-01  7.6056004058327420e-01 7.6866826918778997e-01 3.3263139958256688e-01  7.6893617450195928e-01 7.5868136601758818e-01 3.5915621840711870e-01  7.5073025076223421e-01 7.7743070836552086e-01 3.0530143699316048e-01  7.5306425520962605e-01 7.7516212409027208e-01 3.1217180656116328e-01  7.4241944875126653e-01 7.8295341764218096e-01 2.8444400124230418e-01  7.4424162247955905e-01 7.8121031584749734e-01 2.8989954525834144e-01  7.3308855461671463e-01 7.8748791954375374e-01 2.6283890153820461e-01  5.9617297370386313e-01 4.6383025075147211e-01 3.0358149123862321e-01  6.2140696388888061e-01 1.3223579486409873e-01 6.9744183987203912e-01  7.3125580086261788e-01 7.8915681647481428e-01 2.5731995557011100e-01  7.2238361669816942e-01 7.9197335954849768e-01 2.3819583302673561e-01  7.8660826856295385e-01 7.2994885712821289e-01 4.2469978509886569e-01  7.5447348722936614e-01 7.7340157322839609e-01 3.1690995157332125e-01  7.4513179464010071e-01 7.8008472815974850e-01 2.9298096723386191e-01  5.0131798937367023e-01 1.4412474020531735e-01 1.8605632726857610e-01  5.0823060930713160e-01 1.6584656520908739e-01 2.0180500977905533e-01  6.5533753975746023e-01 1.7298973799146636e-01 7.8848150252243088e-01  7.9467978662820637e-01 6.9241019312624441e-01 4.9100993350808120e-01  7.5526338162259987e-01 7.7229678358456466e-01 3.1974349015184900e-01  7.4535544455901459e-01 7.7971748919451089e-01 2.9388848158304448e-01  7.3460514128770205e-01 7.8534799329568616e-01 2.6854774905882967e-01  5.9216377216615057e-01 1.0306554655054011e-01 5.9980570565906410e-01  5.6823604894113067e-01 8.9463047017224559e-02 5.0675508399761160e-01  7.2153767288002046e-01 7.9337579156861182e-01 2.3465523727563303e-01  7.1500985160199559e-01 7.9438323713082337e-01 2.2172008533741397e-01  7.1358035869043757e-01 7.9307967099506049e-01 2.2102707156574838e-01  7.0980395534135576e-01 7.9382028287295259e-01 2.1313261239017264e-01  6.8707669564520546e-01 2.2831594595112881e-01 8.4083555651328745e-01  6.8927637973805234e-01 2.3118105194711749e-01 8.4430161029894091e-01  7.1857746251289634e-01 3.0129394846427937e-01 8.5487395452692050e-01  5.4204319794088629e-01 4.0049744930769321e-01 1.5392131878916313e-01  7.3419340630019070e-01 7.8536044266230298e-01 2.6786592863662995e-01  7.7007767706036068e-01 7.6270536041874948e-01 3.5420664408961428e-01  5.0889362451250153e-01 1.7058287506896783e-01 2.0130728538633244e-01  5.2514315694649438e-01 1.9342342624898359e-01 2.5586297710660671e-01  5.0087670775744175e-01 1.3607483058066902e-01 1.8891171958991027e-01  5.7211157838937443e-01 9.2842037315280568e-02 5.2127422229414622e-01  5.8517085297187510e-01 1.0353281727893258e-01 5.7123607282798738e-01  7.7396599283942924e-01 7.5233320665624770e-01 3.7528973097411616e-01  7.7582716538197594e-01 7.4757440699594924e-01 3.8500273711720207e-01  7.7973925486796403e-01 7.4130668525953713e-01 3.9937324008388164e-01  7.8140374167450999e-01 7.3562809011487584e-01 4.1017653670951110e-01  7.8432155584310714e-01 7.2975641554737347e-01 4.2258240135582620e-01  7.8578180215207516e-01 7.2359227751627375e-01 4.3379531026893386e-01  7.8248628263654174e-01 7.3145544265376194e-01 4.1792729726206151e-01  7.8655811002209508e-01 7.1976874732853346e-01 4.4058566839080970e-01  7.8285124228470115e-01 7.2967163161093340e-01 4.2112504484928964e-01  7.8659319003263795e-01 7.1900642509744683e-01 4.4181111026854025e-01  7.8958326040289939e-01 7.0937396652050744e-01 4.5986939046222980e-01  7.8935094152493412e-01 7.0990105899423739e-01 4.5881731888932825e-01  7.9167583102462502e-01 7.0125780970610530e-01 4.7450314140560884e-01  7.9121424235710547e-01 7.0333094015983844e-01 4.7085181763542205e-01  7.8589061732782040e-01 7.2168249038689980e-01 4.3689503571687288e-01  6.6357594621795057e-01 1.8401840844986669e-01 8.0638909771212353e-01  7.1872858857673960e-01 3.0066909768384281e-01 8.5558306283598184e-01  7.4329944139658155e-01 3.8076856289242822e-01 8.2518701471615807e-01  7.4232738796701514e-01 3.7701111094837386e-01 8.2739693973338491e-01  7.6065661659201567e-01 4.6061480998387738e-01 7.6472741040616499e-01  7.6002292690936801e-01 4.5918084227003875e-01 7.6557910193645962e-01  7.7061174001322919e-01 5.3873883234508280e-01 6.8187777467897870e-01  7.6986094765750557e-01 5.3912236806505709e-01 6.8030701076017452e-01  7.7296680232008574e-01 6.1130210084596304e-01 5.8635183992317375e-01  7.7209434470101035e-01 6.1306322486694564e-01 5.8281516967647562e-01  7.7412435827977744e-01 6.1393793749028469e-01 5.8415961484062207e-01  7.6796734666674560e-01 6.7330881863573333e-01 4.8959369955508347e-01  7.6642180342693556e-01 6.7766170338980936e-01 4.8103466792780020e-01  5.5024924543809073e-01 8.5882541860519038e-02 4.2984260367621901e-01  7.9298355909375495e-01 6.9610391548093664e-01 4.8370857318197757e-01  7.1406777450195724e-01 7.9447416604156351e-01 2.2000489756922251e-01  7.1421402231274578e-01 7.9165523819165828e-01 2.2448118206833742e-01  7.0660215265715631e-01 7.9188278089523323e-01 2.1002074976481155e-01  7.1560972236362508e-01 7.8751688385126528e-01 2.3313572956757947e-01  7.2651234305818246e-01 7.8185126047965325e-01 2.6083884283721148e-01  7.0535549197394309e-01 7.8931869109753705e-01 2.1140026130513206e-01  7.5510456313114183e-01 7.6406281906431261e-01 3.3299974996948722e-01  7.1941291831643828e-01 7.8207584606559399e-01 2.4800746708992863e-01  7.5526963975304429e-01 7.7233851623280603e-01 3.1968738345631809e-01  7.2312385971751514e-01 7.8866474617094895e-01 2.4439754216889253e-01  7.2218387283342900e-01 7.8874008391056227e-01 2.4265604070336416e-01  7.8801262457315135e-01 7.1806455515851109e-01 4.4475549963385413e-01  7.5656875493026554e-01 7.2234285074477722e-01 3.9943710107109587e-01  7.9266286079245840e-01 7.0435676874552899e-01 4.7072853908347989e-01  5.0666742226776285e-01 1.5646932398540978e-01 2.0148278355773377e-01  7.9256507230980566e-01 7.0291671006069711e-01 4.7284561938727532e-01  7.3365549143708075e-01 7.8590834891674255e-01 2.6615961520103681e-01  6.9945041095328664e-01 7.9041809304916399e-01 1.9830386645692324e-01  6.9525948510580093e-01 7.8788656619550923e-01 1.9361358538703005e-01  7.8838846331129486e-01 7.2083930476713720e-01 4.4082762181695373e-01  7.9315664788117379e-01 6.9580759760324085e-01 4.8432975867290617e-01  5.5418567796164442e-01 8.7907095215198211e-02 4.4609187266816508e-01  7.6922933802522908e-01 5.4015747744183107e-01 6.7846349032688136e-01  5.2634565817552326e-01 2.0001464232217284e-01 2.5612376687289568e-01  5.5385972931095029e-01 2.2500269399672548e-01 3.5858831861760521e-01  6.2274308883771634e-01 4.7645507909964430e-01 3.9179613995784335e-01  5.2046180822851407e-01 9.3356216141952789e-02 2.9525244453041533e-01  5.1918140676613922e-01 1.6994823070107623e-01 2.4630926885397583e-01  7.9408161229942731e-01 6.9196896087957038e-01 4.9110095477403937e-01  5.4914239759251238e-01 2.0496752486905831e-01 3.5403822388018397e-01  5.9166501619334599e-01 2.5990942357319735e-01 4.9334906905442893e-01  5.8997550014612499e-01 2.7724008322004251e-01 4.7066229304338142e-01  5.0360714880372404e-01 1.4316263177821173e-01 1.9745257446839481e-01  7.7790638555452796e-01 7.4123015682213422e-01 3.9741980201349708e-01  7.7788928052572537e-01 7.4118482186086498e-01 3.9747192123515007e-01  7.1466833806060159e-01 7.9663931054664849e-01 2.1776782540384251e-01  6.8992573651342959e-01 7.8366399802076581e-01 1.8855442466395042e-01  7.9236878165548663e-01 7.0921739246052495e-01 4.6293555924402180e-01  6.2982290205365921e-01 3.5342235969557451e-01 5.5479934260341157e-01  6.2683545659719686e-01 3.7664698435480432e-01 5.1906934554743778e-01  7.6171180758794566e-01 4.6437822497176967e-01 7.6186880491643971e-01  7.7432900520757286e-01 7.5779358140260922e-01 3.6710603831265032e-01  7.7483894373509876e-01 7.5375036766179460e-01 3.7409831269998822e-01  7.1623121788248334e-01 2.9638262946578109e-01 8.5388185568730868e-01  7.9325684176889677e-01 6.9937014914659146e-01 4.7897739295382430e-01  7.1648179633411346e-01 7.9060756481546479e-01 2.2974807155379687e-01  7.5884000377708460e-01 7.2008770356962148e-01 4.0615096191532668e-01  5.5029661774198535e-01 8.4884425312411999e-02 4.3063948453919026e-01  5.3087922974474677e-01 8.6484221094404776e-02 3.4410040472358649e-01  7.7779439101862025e-01 6.2499553140042530e-01 5.7281301910329085e-01  7.8201176088930302e-01 7.3844543715660804e-01 4.0641101122147327e-01  5.1927809809251702e-01 2.9572581599025827e-01 1.5066601243926347e-01  5.4942255502251702e-01 8.6375519362019301e-02 4.2560998797187227e-01  5.7975026383880590e-01 9.7780517584038287e-02 5.5116810303749897e-01  7.2861331926546002e-01 7.9092475384098815e-01 2.5029220108102751e-01  7.7804877383202298e-01 7.4910440158172009e-01 3.8516550635861163e-01  7.5401676645090532e-01 7.2817311147856689e-01 3.8679953256085153e-01  7.6411783212212414e-01 6.8908603447985328e-01 4.6077449686486338e-01  7.4479572857853660e-01 7.5212826161784641e-01 3.3598532645116697e-01  7.2085178557771012e-01 3.0602276292324149e-01 8.5517293545039808e-01  5.7090668018800839e-01 9.6170450776770847e-02 5.1526210710141918e-01  6.3511407795518138e-01 3.3001158921081047e-01 5.9882105877856873e-01  7.1049013448