<?xml version="1.0"?>
<VTKFile type="UnstructuredGrid"  version="0.1"  >
<UnstructuredGrid>
<Piece  NumberOfPoints="600" NumberOfCells="1069">
<Points>
<DataArray  type="Float64"  NumberOfComponents="3"  format="ascii">239.8 188 0  250.2 180 0  258.2 172.4 0  257 169.4 0  259.9 157.4 0  258.7 150.3 0  261 143.5 0  251.7 144.4 0  250 138.7 0  247 138.1 0  245.2 130.8 0  247.3 126.4 0  242.7 118.6 0  231.2 107.7 0  226 102.4 0  226.5 93.90000000000001 0  224.5 91.19999999999999 0  224.5 84.09999999999999 0  234.5 73.80000000000001 0  228.4 68.90000000000001 0  230 70 0  233.4 68 0  222.7 61.5 0  220.6 45.5 0  223.4 49.40000000000001 0  224 47 0  221.8 43.09999999999999 0  221 38.40000000000001 0  219.5 38.5 0  219.4 41.69999999999999 0  217.1 36.90000000000001 0  209.7 36 0  209.5 31.69999999999999 0  205.1 29.90000000000001 0  201.5 30.40000000000001 0  199.2 38.69999999999999 0  201.8 41.40000000000001 0  194.8 53.80000000000001 0  196.1 57.69999999999999 0  193 59 0  191.4 66.09999999999999 0  193.5 66.5 0  194.1 64.40000000000001 0  195.6 64.69999999999999 0  195.4 72.40000000000001 0  199.5 77.30000000000001 0  197.7 86.90000000000001 0  200.6 87.5 0  201.5 91 0  198 94.80000000000001 0  198.6 100 0  197.3 105.4 0  198 109.5 0  197 112.7 0  198.3 116.1 0  201.3 122 0  207.2 121 0  208.1 126.7 0  205.6 127.9 0  209.1 134.9 0  210.9 144.4 0  210.1 147.9 0  213 148.4 0  215.4 149.3 0  215.1 152.8 0  219.9 159.7 0  220.3 163.2 0  218.7 164.9 0  219.9 166.7 0  221.9 169.7 0  220 170.3 0  224.9 174.7 0  229.8 177.4 0  229.7 181 0  228 172.9 0  239 178 0  240.4 180 0  239 181.5 0  241.2 185.9 0  242.95 187.99 0  241.113414658978 187.995830429654 0  242.142964269982 187.9925620181905 0  243.6619187087475 187.2054164851183 0  244.631513060971 186.1368566403919 0  245.9520480703466 184.6815359886801 0  247.7505449816197 182.6994683581873 0  252.8666666668011 177.466666666539 0  255.5333333336077 174.9333333330727 0  257.9666666666661 165.4000000000025 0  258.9333333333339 161.3999999999974 0  259.3000000000018 153.8500000000108 0  259.849999999995 146.9000000000149 0  256.350000000011 143.9499999999989 0  250.8500000000015 141.5500000000051 0  246.1000000000042 134.450000000017 0  245.0000000000049 122.5000000000082 0  239.8250000000041 115.875000000004 0  236.9500000000083 113.1500000000079 0  234.0750000000041 110.4250000000039 0  228.6000000000041 105.0500000000042 0  226.25 98.15000000000002 0  224.5 87.65000000001388 0  227.8333333333301 80.66666666667 0  231.1666666666644 77.23333333333571 0  232.2500000000014 71.90000000000116 0  230.8999999999995 68.45000000000009 0  225.5500000000108 65.20000000001409 0  222.9333333333329 57.46666666667507 0  223.1666666666663 53.43333333333877 0  218.2500000000016 39.30000000000339 0  213.4000000000277 36.45000000000337 0  200.3500000000025 34.54999999999097 0  199.4666666666726 45.53333333332282 0  197.1333333333385 49.66666666665756 0  193.5499999999978 61.6999999999891 0  193.3999999999962 69.24999999999406 0  197.4499999999954 74.84999999999454 0  198.6000000000007 82.09999999999631 0  199.7500000000014 92.8999999999985 0  198.2999999999997 97.39999999999726 0  197.950000000001 102.699999999996 0  199.7999999999944 119.049999999989 0  204.2499999999946 121.5000000000009 0  207.6499999999987 123.8499999999919 0  207.35 131.4 0  209.9999999999998 139.649999999999 0  217.4999999999938 156.249999999991 0  223.4 172.2 0  234.349999999995 179.5000000000016 0  243.6879031604435 137.0140197666175 0  200.5383884465266 74.3488835611292 0  236.0631303447202 117.0934887033495 0  255.2860706566257 162.4962097513293 0  210.288597171716 124.9641969758756 0  200.5494091764226 101.6938959209836 0  221.0463142825589 155.4583368622661 0  213.2458552033902 137.0182369603261 0  202.5715495252679 76.72215432732189 0  203.3954031521662 88.63888283314805 0  204.2685850489914 91.3771816532193 0  227.6002395557545 108.6285485308707 0  203.628067965887 73.80056467640915 0  205.5882193517793 76.19298591547215 0  219.3893731065793 59.36381842571261 0  222.6962970705901 100.2685345181304 0  206.2147206748961 89.23684943534887 0  224.5717795045128 68.90112930058935 0  207.1505150846513 91.97409496002633 0  206.6973804802006 73.20614062920998 0  209.0198262461606 75.84435446174592 0  204.6828826698789 70.78585325419728 0  244.5505030757118 140.1958289722003 0  241.2713205316759 139.2760911012237 0  242.0887623359319 142.523888210035 0  238.8201809392432 141.5810446831215 0  239.6254755922404 144.8663288044098 0  238.0282380951174 138.3361101328854 0  235.5650201404635 140.6403522599634 0  234.7868703265066 137.3765638391416 0  232.3671992655526 139.7040340002533 0  231.5735594060041 136.4371341666237 0  203.6025996895933 45.13245413868078 0  209.0094500142995 89.77916893533093 0  234.0048963149566 134.0619286436701 0  230.7388584519252 133.0932019642386 0  256.0202376970822 152.4353991158102 0  233.1239077827668 142.9168616681826 0  229.9476468053365 142.0041066209365 0  207.8316386186595 70.1760146256688 0  205.8080150778045 67.77328389450008 0  210.1255397865818 92.58553759086743 0  249.9530000513888 175.7831884132348 0  230.7520925362455 145.2114145624654 0  227.5614746466729 144.2879078440436 0  226.855634298717 141.1029513419209 0  221.109901317114 86.07738557802102 0  221.3898452401857 82.41394785245797 0  233.1906280944642 130.7538222264552 0  229.849944657733 129.8156996791429 0  227.4514186000422 132.1240250470279 0  226.5693510741891 128.7503487535618 0  208.0732626511005 94.86195720558288 0  211.0579654481564 95.54875779444082 0  209.0041892644107 97.86214677695602 0  216.7276956906574 41.503774594868 0  224.4517166451922 143.3327513982825 0  222.7890579510523 161.0597281586643 0  209.0698801997012 67.10609773523754 0  206.9141710660066 64.58868367949086 0  211.5265666272545 70.15591236789595 0  218.2872405225432 83.97244872861398 0  207.7311279855657 86.71297189445447 0  242.9081583239214 145.8040728889821 0  240.4621480942806 148.1601866910276 0  243.7562457682554 149.0907552716282 0  241.3145175595932 151.4726760652338 0  244.57940289053 152.3666461928266 0  242.1615185950008 154.7794567484269 0  238.8718789959482 153.837018554675 0  239.7122407256576 157.1523621063041 0  236.4289375384117 156.2070529629317 0  237.2412111497984 159.5248795948406 0  240.5638486223294 160.4901132255754 0  238.1023772270576 162.8725976094984 0  241.406699334305 163.8359650846702 0  238.9630278156374 166.2175426435888 0  234.7361516891476 161.8928266488476 0  213.124654294145 93.56046727196781 0  212.0434836741439 98.5447165103807 0  209.9504013355788 100.9044854564887 0  213.0958854424699 101.5871381629478 0  210.9302285957408 103.9580876602797 0  214.0010858928389 104.7096094485587 0  211.9141605791952 107.0615795921763 0  214.9890206858068 107.8102538193681 0  212.9269247290344 110.1901972673309 0  216.0786784436673 110.8721476340726 0  209.7617142319936 109.4041944495815 0  213.932211035267 113.2627867337288 0  217.0813395790477 113.941453344218 0  218.441750941724 80.63655841437071 0  242.2412500877879 167.1781012200828 0  229.2280100589433 126.5393356137107 0  225.9203624138538 125.4446005931909 0  223.3571983269889 127.7265579015054 0  222.6136526124249 124.535547281476 0  225.3056527306165 122.1016033222114 0  220.3254947810712 126.7409252226328 0  201.0777098578984 116.3274181811247 0  219.7857338015156 123.3740225787907 0  228.3312248450329 147.5116593523427 0  223.7608055035202 140.2236832285434 0  221.3299816979287 142.3937311365609 0  245.4512147769152 155.7068319139237 0  214.9140854911084 116.3016229600955 0  241.4261562479406 177.9745543740275 0  202.8157779574545 68.56000166221941 0  240.0703975438099 175.788326095019 0  222.1092806876692 145.4935485219417 0  220.9446699547174 129.9892194059113 0  217.7131509102484 129.0121441451285 0  231.966766611991 173.6290727753235 0  244.7035101352062 164.8150950666352 0  215.4589412711449 82.35047797613059 0  218.5358717759109 108.3057574313637 0  210.0910095413371 63.89870618133642 0  207.8879031726656 61.27101234314142 0  219.5945508510063 49.26517889117938 0  204.4640092132492 79.16637174968085 0  219.054165325738 63.24726086273807 0  245.5364828646638 168.1932520030346 0  204.1722248369768 62.21708558088665 0  205.6821920907016 58.50393459316535 0  209.6155639374877 57.86856426712311 0  196.5553895895766 69.81481204083099 0  235.6123608690412 152.8874163252039 0  233.2157615582107 155.2532908181879 0  240.6837858645011 122.4172544901715 0  210.8141135626509 127.8682271622992 0  245.3812170314571 182.2522052029404 0  206.9456715292139 54.99559933887414 0  210.5075513436263 54.0697256538542 0  207.9169085133073 103.1765167571325 0  223.2431750051092 164.070583057325 0  225.7483443677002 162.1151723759482 0  206.0378951001477 96.94148998994152 0  242.6796154699829 175.6597339900036 0  214.6838055972238 146.7252062992904 0  211.9990465678071 115.5576487680909 0  221.4613603554043 78.78973924681317 0  218.3291154698718 77.0769598533563 0  200.3358005877804 107.1120377748188 0  247.4072167499741 149.4171847419639 0  211.6397508657857 39.55684201930068 0  226.8243927196049 72.17619845696734 0  215.354291780634 85.55308818793476 0  236.5600255652378 131.6759521500912 0  226.0129792461303 165.2837912620818 0  218.060680211082 117.0067370946569 0  220.2726382852709 114.6051380114157 0  212.8793579154693 118.3711453694285 0  215.022609143906 99.35520341734289 0  203.0459334752391 85.71272568041367 0  202.8915272398735 55.67723839797077 0  220.5465456567309 139.1747891305704 0  239.6921265383864 169.3260213165692 0  236.6712881821608 168.5826958099534 0  218.0125893802946 141.5012621699478 0  201.3193403438535 110.3399099823547 0  203.3799271438462 107.9393487975089 0  248.1978655115356 165.7601936670729 0  248.8804221900089 169.2105116441819 0  237.1867529048816 147.1869371163321 0  236.7369473929319 176.2832209442509 0  247.3010859001464 162.3677476585113 0  204.3727171343656 110.8209535355564 0  235.7766571132668 128.3537547116865 0  217.8932394506906 150
[...]
<PointData  Vectors="f_12"> 
<DataArray  type="Float64"  Name="f_12"  NumberOfComponents="3" format="ascii">7.3221059426533108e-01 3.0379448987826357e-01 8.7401835780516779e-01  7.3330937829125276e-01 3.0663677254369232e-01 8.7353783330443924e-01  7.3454466915028516e-01 3.0978454378163778e-01 8.7298905993503806e-01  7.3510817970339737e-01 3.1116006799992924e-01 8.7277382350929400e-01  7.3298942875115958e-01 3.0491309725232302e-01 8.7463256363899344e-01  7.1338636745241613e-01 2.6036945238134607e-01 8.7407212118146127e-01  7.1116773780175613e-01 2.5437397267283435e-01 8.7472672393331952e-01  6.1651911502827805e-01 1.3419370725230101e-01 6.7039890303396010e-01  5.2982725967918709e-01 9.9554938367857643e-02 3.3198990987241361e-01  5.1461602791556393e-01 1.2017569545391828e-01 2.5347484798033559e-01  5.1449591266410977e-01 3.0920790392371916e-01 1.2248616498503760e-01  5.3692048175886953e-01 4.2081117084742903e-01 1.1849981254863375e-01  6.3264721339878838e-01 6.0499964591996291e-01 2.7283098695056074e-01  5.9154225868902388e-01 2.4303416919748697e-01 5.0900180306772669e-01  5.9906406636309351e-01 4.5942349653151521e-01 3.2443948943928963e-01  6.5190690752386871e-01 6.8642742728454831e-01 2.3058980202874541e-01  6.7830643594782047e-01 6.9879659730894683e-01 2.8167337166830692e-01  7.3542450607403620e-01 5.9315638091286105e-01 5.5542189097341299e-01  7.5184003840410385e-01 5.5908451563467088e-01 6.3076021478648325e-01  6.6095257873906954e-01 3.2224104486930616e-01 6.8451670650183816e-01  6.9521590507791808e-01 3.8414280772508180e-01 7.2222801633045952e-01  7.0922036938282251e-01 3.9366483925306323e-01 7.5589930576083708e-01  5.1417544358245970e-01 2.0186198028297070e-01 2.0139820270624356e-01  5.7699117496036889e-01 1.0822845463199088e-01 5.3390797182089222e-01  5.1993877514544162e-01 1.0155227156238718e-01 2.8919536020546577e-01  5.7646973158223314e-01 9.7659578190522400e-02 5.4527919747284237e-01  5.9747046137505821e-01 1.1580689444318230e-01 6.1748720805313706e-01  6.3265705432001540e-01 1.3905172963421331e-01 7.4157930436859021e-01  6.3133208053888901e-01 1.3856485803026986e-01 7.3644172946354958e-01  6.1893608537783706e-01 1.3331140598328964e-01 6.9033194620240013e-01  6.8252212470435170e-01 2.2117583072769573e-01 8.3829570483446603e-01  7.5424195240716707e-01 4.4475717172399315e-01 7.7576469616584387e-01  7.8203988157719795e-01 5.9911608149796125e-01 6.1685025646694636e-01  7.8798359948462549e-01 6.5358316586657961e-01 5.4336463971427018e-01  7.8936207717438167e-01 6.6628626617077735e-01 5.2615010833476117e-01  7.7663497593571706e-01 5.4533574086283776e-01 6.8156791223499047e-01  7.5204825733342584e-01 4.2196440537666174e-01 7.9763407700565847e-01  7.1512842443143498e-01 2.7451548251065055e-01 8.7188509570102102e-01  6.9826430289769481e-01 2.3997943221492091e-01 8.6165167345646687e-01  7.0869279530629481e-01 2.5872880441697355e-01 8.6984742805592652e-01  7.0374396200972134e-01 2.4687906441822149e-01 8.6792270571355812e-01  6.9699209703183274e-01 2.3484773041508822e-01 8.6124826203687543e-01  6.9431041586444076e-01 2.3161662294901894e-01 8.5707053727625726e-01  6.8535452611049430e-01 2.1669819543089511e-01 8.4495264425316130e-01  6.6593708997601864e-01 1.8565334990771293e-01 8.1541678424880726e-01  6.3203975278616442e-01 1.5533780309906087e-01 7.3184591189755233e-01  6.8532305453235565e-01 2.9373660044468358e-01 7.9279974611431869e-01  6.8768081748393239e-01 3.3205158026808979e-01 7.6009337087404083e-01  6.8648361095007782e-01 5.0182229225885400e-01 5.6237805422417564e-01  6.5058686895889140e-01 5.9288948737460301e-01 3.4554101809460569e-01  6.0002969453968469e-01 5.2331671539102143e-01 2.5475436942446505e-01  5.4537003407492501e-01 3.4399739385343975e-01 2.1828129289324555e-01  5.2897419497172993e-01 2.1451153927240005e-01 2.5588282686598185e-01  5.3173436175189959e-01 1.5196482942355430e-01 3.1393734182932176e-01  5.5043896198067610e-01 1.2747687031178512e-01 4.1392337402045798e-01  6.0231083293174748e-01 1.3234381666229209e-01 6.4068588560420747e-01  6.2083149389603265e-01 2.0178533012737651e-01 6.6030218082732706e-01  6.7594810488173229e-01 5.3552057567758093e-01 4.9266116081195743e-01  6.7517880067314773e-01 6.0032285044590361e-01 4.0816607559170925e-01  5.9594478988996658e-01 5.5170590898727323e-01 2.0996883005921296e-01  4.9632305161848722e-01 1.9273489597155599e-01 1.3354660453125622e-01  4.9038639543999513e-01 1.5369170160661416e-01 1.3480250726687149e-01  4.9437166145288375e-01 1.4835686137063264e-01 1.5330134479310659e-01  5.0543321391032769e-01 1.2013334104595200e-01 2.1480406591535814e-01  5.2544471448630459e-01 9.3553960183170901e-02 3.1619913460413646e-01  6.3150600990130290e-01 1.4188842234832172e-01 7.2440122559171771e-01  6.9647514904172381e-01 2.3036803481042917e-01 8.5850532718956885e-01  7.1325954943220915e-01 2.6168085596968066e-01 8.7274881813524774e-01  7.2169742436791895e-01 2.7969231302110531e-01 8.7506296039040465e-01  7.3238748191944436e-01 3.0414124365885764e-01 8.7444446918489094e-01  7.3289309439868033e-01 3.0499020867187115e-01 8.7494601990063059e-01  7.3995406333444924e-01 3.2335299618909652e-01 8.7041146513055245e-01  7.3930226010787625e-01 3.2230983281797754e-01 8.7016363343467706e-01  7.3912824158012513e-01 3.2193457011045312e-01 8.7020672455911230e-01  7.3947068870267985e-01 3.2224849964971275e-01 8.7056515534338452e-01  7.3606247073600706e-01 3.1377172804617504e-01 8.7216518558773282e-01  7.3393329515581618e-01 3.0824589759177123e-01 8.7324772170145037e-01  7.3327788789940740e-01 3.0655200124871418e-01 8.7355515436030906e-01  7.3238086052260165e-01 3.0423443165859587e-01 8.7394730721444980e-01  7.3229442965030167e-01 3.0401122790965701e-01 8.7398306883255683e-01  7.3226092233044748e-01 3.0392455823561998e-01 8.7399729329409959e-01  7.3228106247172220e-01 3.0397664413530412e-01 8.7398877694386934e-01  7.3233609666080024e-01 3.0411898345843091e-01 8.7396536031198746e-01  7.3244757892062640e-01 3.0440734075726084e-01 8.7391778219769045e-01  7.3262743432750488e-01 3.0487288444869215e-01 8.7384019144247183e-01  7.3292884656552348e-01 3.0565289347921931e-01 8.7370793465047780e-01  7.3375299953134476e-01 3.0777547974676789e-01 8.7333912866341001e-01  7.3419619681944781e-01 3.0890552875398258e-01 8.7314102316454278e-01  7.3598568521277397e-01 3.1316399136930612e-01 8.7254791373418339e-01  7.3557546187092882e-01 3.1175561700762938e-01 8.7310322917103866e-01  7.2610708617743425e-01 2.8831623280574520e-01 8.7637384213843872e-01  7.0910450160836414e-01 2.5068087700232861e-01 8.7302731732810757e-01  6.9420732796442608e-01 2.2339528809801115e-01 8.6077284014722766e-01  5.5448044921391870e-01 1.0197096035469277e-01 4.3567300546323062e-01  5.0290054690359431e-01 1.9370589321140053e-01 1.5808176549622971e-01  5.7524773980710309e-01 5.2712660673884770e-01 1.6126379685560951e-01  6.7110461239911734e-01 5.6737624790878716e-01 4.3814145815317623e-01  6.7349537578581642e-01 4.2807461583861717e-01 6.1886509600339146e-01  6.3380917872569220e-01 2.8905238236693503e-01 6.3367080820155330e-01  5.8096946514913916e-01 3.0370120728751054e-01 4.0810869954680501e-01  6.2841493503230783e-01 6.2509500444082289e-01 2.3915701662381489e-01  7.1486024088186273e-01 6.6885087239136221e-01 4.0701877624227534e-01  7.5210880781971390e-01 5.7094306439408971e-01 6.1934774458391495e-01  7.5473041898981497e-01 5.6848353009103036e-01 6.2504829938483852e-01  7.3991599427099375e-01 5.1531283256034910e-01 6.6729369312214426e-01  7.0024245102330107e-01 3.8638139798895144e-01 7.3661017961482822e-01  5.6416712526352875e-01 2.3228777954648744e-01 3.9711046048961640e-01  5.0062078048624870e-01 1.5399131996248622e-01 1.7657353876120499e-01  5.0552181222803616e-01 1.1781822134749977e-01 2.1899198374323817e-01  6.5981323881442167e-01 1.8455493406979731e-01 7.9732183258966094e-01  7.0877405984458020e-01 2.8432298782242194e-01 8.5173642457502363e-01  7.8585283633020131e-01 6.2107057147780453e-01 5.8867428975527381e-01  7.2265876179862520e-01 3.0552181398593464e-01 8.6226250618652023e-01  7.2012096724843822e-01 2.8779717314356645e-01 8.7304057318747064e-01  7.0276954151087012e-01 2.4734770954972071e-01 8.6521570832983008e-01  6.9266620634338150e-01 2.2675739108697163e-01 8.5757835000458926e-01  6.4188326336903612e-01 1.5759951541784306e-01 7.6009236492052412e-01  6.6556639398606066e-01 2.2763268402355383e-01 7.9286930283928458e-01  6.6645144666140999e-01 5.7606813918485833e-01 4.1319069946740244e-01  6.3127849181632745e-01 5.7897462534056032e-01 3.0046157215950126e-01  5.6674060196188669e-01 4.3039990497158798e-01 2.2417114257665874e-01  5.8131896377266912e-01 1.2571890831916510e-01 5.5280586489995531e-01  6.0438725872730914e-01 1.4341655658185137e-01 6.4169633326821240e-01  6.6452746774378169e-01 3.5974611955879804e-01 6.6390337233902752e-01  6.5170166242613581e-01 6.1318884093864867e-01 3.2178765449439156e-01  5.2964885258849193e-01 3.5507173582573642e-01 1.4496995072121127e-01  5.6169106502280408e-01 9.6082175807327697e-02 4.7313200765926816e-01  7.3821382515290845e-01 3.1877731075773147e-01 8.7162315117966382e-01  7.3852478073731165e-01 3.2031237800388912e-01 8.7063287131626876e-01  5.0335391711408550e-01 1.5767418538877812e-01 1.8318051447269085e-01  6.2273357339084445e-01 1.4103800945533773e-01 7.0327744068479925e-01  6.7762717265300954e-01 5.1393833294278213e-01 5.2617661654561843e-01  7.3544294985862324e-01 3.1153984117616218e-01 8.7306024452223374e-01  6.7454133078804202e-01 4.4023717718914318e-01 6.0440003614037807e-01  5.8248913332088059e-01 4.7910827012068685e-01 2.3677577601015523e-01  5.7545125948198472e-01 1.0200738431370615e-01 5.2821475154911735e-01  5.5226029799377141e-01 4.3503229929511344e-01 1.6267400901599091e-01  6.1618551968334589e-01 1.4297948059878551e-01 6.8024518361313935e-01  6.9260450488716618e-01 4.1279554328000456e-01 6.8564166871999788e-01  6.8902558606674980e-01 5.1740410208972232e-01 5.5027356577771103e-01  5.8102920776698586e-01 2.5536522552368790e-01 4.5283102342954956e-01  5.9162899406451885e-01 1.2136356298170116e-01 5.9339570889380466e-01  5.9218241112405257e-01 1.3000404457724044e-01 5.9324796400742508e-01  5.0212882425386840e-01 1.6631620768919389e-01 1.7514002160160236e-01  6.1581248405041078e-01 5.6758486459700364e-01 2.6431817292124316e-01  6.9683986294982603e-01 4.6287395540416265e-01 6.3865311278378722e-01  6.0002819702448562e-01 2.4603497864311771e-01 5.3492278711454699e-01  6.9000438488237070e-01 5.5583045798280484e-01 5.0426550084134869e-01  5.6257214824082957e-01 1.1356143823991514e-01 4.7511865210582793e-01  5.7292084634703788e-01 1.2956310917652583e-01 5.1340569607116637e-01  5.6828029430540783e-01 1.0994492506526850e-01 4.9924898525313161e-01  5.1550654277552010e-01 1.1487432705686032e-01 2.6015406557945725e-01  5.0418894105259726e-01 1.3845997004742305e-01 1.9867941135703618e-01  5.2105262218436998e-01 1.0657080310350525e-01 2.8883904472974065e-01  5.0785303645283553e-01 1.2361096231351278e-01 2.2288416588409757e-01  5.3018885050189990e-01 1.0068518381804754e-01 3.3180870717562944e-01  5.0075018701451623e-01 1.7242545659716677e-01 1.6354459186569001e-01  5.0177418561996856e-01 1.5093899519247228e-01 1.8124041881408198e-01  5.0454530478882897e-01 2.2090467159745786e-01 1.4628424740648727e-01  5.0187758145093031e-01 1.8931042274800963e-01 1.5701416457839348e-01  5.1484016980227409e-01 2.8286711035920459e-01 1.4220597225029910e-01  7.1267692065789356e-01 2.9161138668968195e-01 8.5399899480200581e-01  7.0085326902340173e-01 5.1738480402648035e-01 5.8186635834412459e-01  5.2390336746809796e-01 3.2821300489956734e-01 1.4278163980992858e-01  5.4593773961333503e-01 4.1061560584788120e-01 1.5952821267758011e-01  7.1634580492428312e-01 2.6695549495721999e-01 8.7488868773426454e-01  5.0489347348972502e-01 1.3265695820128851e-01 2.0518056813152902e-01  5.0139411183772331e-01 1.6131795803510382e-01 1.7316419094471805e-01  5.3966807511536830e-01 1.1029318243340643e-01 3.7455766584433114e-01  5.4891391361835074e-01 1.0626271936242088e-01 4.1552705940891588e-01  6.8824683934564346e-01 6.0028528874070153e-01 4.4123505878247105e-01  7.3390681127081092e-01 3.0816006379518046e-01 8.7327763019966198e-01  5.1079458137229861e-01 1.1718065374095327e-01 2.3898589732292005e-01  5.0362696669518681e-01 1.3753833009852282e-01 1.9699238190652812e-01  5.0256769574914839e-01 1.9784412765401643e-01 1.5403582763791068e-01  7.2300018087644458e-01 6.1748595067185008e-01 4.9784535789789769e-01  7.2427643383930973e-01 5.1157054524666212e-01 6.4378748229365346e-01  5.5997955442915393e-01 4.5623699378332644e-01 1.7173875929805124e-01  5.9112094638471746e-01 5.2827037091842377e-01 2.1572589777089812e-01  5.7246165697077234e-01 4.8720621818830834e-01 1.8909575944162416e-01  6.2294926341618873e-01 5.7160300698767974e-01 2.7919861235085847e-01  6.6805727917621216e-01 6.0737317198224816e-01 3.7731563473303970e-01  6.6166765955631035e-01 6.3066263489239682e-01 3.2904491972705141e-01  6.3685506968989258e-01 6.0198080556850453e-01 2.9059440491162236e-01  6.4276867560951534e-01 1.6355772752606573e-01 7.5543687668829274e-01  5.0092270937377625e-01 1.6519205524804775e-01 1.6874837999507958e-01  6.6893336138061588e-01 1.8631462416863251e-01 8.1633302945745190e-01  5.2356202830700560e-01 1.1480679558234350e-01 2.9985693273300723e-01  5.3586213252831427e-01 1.0641168703793186e-01 3.5733641169694413e-01  5.2581903610441583e-01 1.2897285422083107e-01 3.0311753139183317e-01  7.1418236388490708e-01 4.9234442050790717e-01 6.4575041732755223e-01  6.9404871416411784e-01 3.9045112119901898e-01 7.1634645020206000e-01  5.5361762985619434e-01 9.8884294517855895e-02 4.3510488475580333e-01  5.6842976809792001e-01 1.0155881033657017e-01 4.9770790256682668e-01  6.0075437105905971e-01 1.1691990111012884e-01 6.2319311276786460e-01  6.1947314779391371e-01 1.3015460584358229e-01 6.8796730804301787e-01  6.5250666799806101e-01 1.6352435864344569e-01 7.8212798348535573e-01  6.6991299970743468e-01 1.8594718452825146e-01 8.2057968934056624e-01  6.3999633462967775e-01 1.4920557576950041e-01 7.4993863110820780e-01  6.8625576545456080e-01 2.1088566889303875e-01 8.4799461119915087e-01  6.6096437914095396e-01 1.7381319848544158e-01 8.0208893941209247e-01  7.0089781574287013e-01 2.3656489415521170e-01 8.6500089501882538e-01  7.1571622675984492e-01 2.6582847696704021e-01 8.7451280824792621e-01  7.2368740567729684e-01 2.8328718157083127e-01 8.7604758968200147e-01  7.3000567933356486e-01 2.9795141506420258e-01 8.7534754146776728e-01  7.3355803569043643e-01 3.0675537266994585e-01 8.7407285557877945e-01  7.1300748019365412e-01 2.6042745285278385e-01 8.7319271753007732e-01  6.7925492550952915e-01 6.4287587147854963e-01 3.6077534794332128e-01  6.3042787435336944e-01 6.0634710220033328e-01 2.6518816826705827e-01  6.0467869907057492e-01 5.4524164789473717e-01 2.4867215598863493e-01  6.0122724085849555e-01 5.3890403817933608e-01 2.4383255408406559e-01  5.7698602993124437e-01 4.5566382344269585e-01 2.4052995274751521e-01  5.7623161045937887e-01 4.4137013372940298e-01 2.5225862248737357e-01  5.5638569207349020e-01 3.5185654892757634e-01 2.5731521780479066e-01  5.5862953429747264e-01 3.3681051363399517e-01 2.8073778157303753e-01  5.4710632721659569e-01 2.5942382573565725e-01 2.9963575427215927e-01  5.5320172988798577e-01 2.5127285587799103e-01 3.3377111930307435e-01  5.4254771872106733e-01 2.6596090198523331e-01 2.7396641158426993e-01  5.5465671033091224e-01 2.0332362752919991e-01 3.7969705000238557e-01  5.6633365048254658e-01 2.0728378866724470e-01 4.2882734242417675e-01  6.8695568266540108e-01 3.6111753318608447e-01 7.2920187638020684e-01  7.3516834089215555e-01 3.1090442340957325e-01 8.7318488616394319e-01  6.3787754550584419e-01 5.7958076162835004e-01 3.1903147042807162e-01  6.6307905275606671e-01 5.6177631055661259e-01 4.2082779225016204e-01  6.4890642105216934e-01 5.7796854458993530e-01 3.5637137991967527e-01  6.7468023549511480e-01 5.1302991446926727e-01 5.1765077135872661e-01  6.7548586692248092e-01 4.6216440062614306e-01 5.8324858974739213e-01  6.6653879649159731e-01 5.5548024252564898e-01 4.3919681826024054e-01  5.6073688178753212e-01 1.2811125207254451e-01 4.5929670670048878e-01  6.7437515161344974e-01 4.4208821416814020e-01 6.0381885613861275e-01  5.1974523208996259e-01 1.0566995887264392e-01 2.8377764681025991e-01  5.0765649124835699e-01 2.4136781363518986e-01 1.4416253360270426e-01  5.0206994323404397e-01 1.9951718747185396e-01 1.5089490646050757e-01  6.9484317978300791e-01 2.2549608420643841e-01 8.5898376633205065e-01  5.8212024525204020e-01 1.9619455821786230e-01 5.0638490153891058e-01  7.3471912615015345e-01 3.1027177117161509e-01 8.7287474880220095e-01  5.8564297770738261e-01 1.1583099313826099e-01 5.6710992917140846e-01  7.3601421808911471e-01 3.1360414884521898e-01 8.7222880915603729e-01  5.0212997396181380e-01 1.3958593386295129e-01 1.8958660630747823e-01  6.2841415638162013e-01 5.7709921371337525e-01 2.9105292516961290e-01  6.4996919252763108e-01 5.8152394225242510e-01 3.5521799154367412e-01  7.3919813891264785e-01 3.2177940117114345e-01 8.7047454308681949e-01  7.3341381675513950e-01 3.0635431939649410e-01 8.7410509001295877e-01  6.8443801349085098e-01 3.5342850191348596e-01 7.3043797521603360e-01  5.6328716163601633e-01 3.2063084180471690e-01 3.1598428605485934e-01  5.1536957578799425e-01 1.1888273608778352e-01 2.6107900929034106e-01  5.3089708710590167e-01 1.0648154785160721e-01 3.3518766414069845e-01  5.3398807548985083e-01 1.0302325650874160e-01 3.4903416009610982e-01  6.2553528036604678e-01 1.6530206383693494e-01 7.0287615371637535e-01  5.1276887494101964e-01 1.9420438515845651e-01 2.0116693501249849e-01  7.3552342179444152e-01 3.1196420108599870e-01 8.7282434375627826e-01  5.6855338400447497e-01 1.0923943972410138e-01 4.9750972552272349e-01  5.6213656550102375e-01 1.0774458373791938e-01 4.7055481302040481e-01  5.2675538214779383e-01 1.0596752880551728e-01 3.1727196423090376e-01  6.6991802975769177e-01 1.9192846019042639e-01 8.2137487381141250e-01  6.0851784188637614e-01 1.2169462929563300e-01 6.5111035768744219e-01  6.3199306763623841e-01 1.4111459059892167e-01 7.2719852890958292e-01  6.0671735181421138e-01 5.7531564400681212e-01 2.2086837652838417e-01  6.7141906095861226e-01 5.6116867936268799e-01 4.4661077585713665e-01  7.3290351570199697e-01 3.0558600557972532e-01 8.7371989466269506e-01  5.6745135844565298e-01 1.0925603009555926e-01 4.9320156251953778e-01  5.3966240881235028e-01 1.0368723221959300e-01 3.7527809154760028e-01  5.7896381096858451e-01 4.6695095650037954e-01 2.3657474217398644e-01  7.0654062574247800e-01 2.4853513486725715e-01 8.6831812133566322e-01  6.9228354677423587e-01 2.2208208743756158e-01 8.5479139588050324e-01  6.4457585217977809e-01 5.9548231333778534e-01 3.2247574048144639e-01  7.3508946304827272e-01 3.1119606984815945e-01 8.7271959747595318e-01  4.9653592841028976e-01 1.5003739503883554e-01 1.6067593975724173e-01  5.6797412662971525e-01 1.7970749340604852e-01 4.5704398292238568e-01  6.9477508324508097e-01 3.8130376391242815e-01 7.2698014905180786e-01  6.3378206581726915e-01 2.4240235889190115e-01 6.7270417115611481e-01  5.3793095535370550e-01 2.9166899359361514e-01 2.3170749194845830e-01  6.3248257325580781e-01 1.4239911558133600e-01 7.2786873341688552e-01  7.0619135409277523e-01 2.8181060008318654e-01 8.4887296503521503e-01  6.7919895531105756e-01 3.4893853829782173e-01 7.1738152970906555e-01  7.0921625861207671e-01 4.8415453638924111e-01 6.4428743238419606e-01  5.3301198725711063e-01 3.7020736721524833e-01 1.4423010195504582e-01  7.1947277127455234e-01 2.7474735447725213e-01 8.7484366148790649e-01  6.0044986310555049e-01 2.2038113269144657e-01 5.6427582003408594e-01  5.8243080380593781e-01 2.1540318104687992e-01 4.9280245995205724e-01  6.0400430911065472e-01 2.0730377404826428e-01 5.8889492215881101e-01  6.2267489771306905e-01 6.0028437968241155e-01 2.4780406925792917e-01  6.8296460978295948e-01 3.1064648507954851e-01 7.6889624466526796e-01  6.2108070882977873e-01 1.4182326131040648e-01 6.9142494893498074e-01  5.1752627316