<?xml version="1.0"?>
<VTKFile type="UnstructuredGrid"  version="0.1"  >
<UnstructuredGrid>
<Piece  NumberOfPoints="600" NumberOfCells="1069">
<Points>
<DataArray  type="Float64"  NumberOfComponents="3"  format="ascii">239.8 188 0  250.2 180 0  258.2 172.4 0  257 169.4 0  259.9 157.4 0  258.7 150.3 0  261 143.5 0  251.7 144.4 0  250 138.7 0  247 138.1 0  245.2 130.8 0  247.3 126.4 0  242.7 118.6 0  231.2 107.7 0  226 102.4 0  226.5 93.90000000000001 0  224.5 91.19999999999999 0  224.5 84.09999999999999 0  234.5 73.80000000000001 0  228.4 68.90000000000001 0  230 70 0  233.4 68 0  222.7 61.5 0  220.6 45.5 0  223.4 49.40000000000001 0  224 47 0  221.8 43.09999999999999 0  221 38.40000000000001 0  219.5 38.5 0  219.4 41.69999999999999 0  217.1 36.90000000000001 0  209.7 36 0  209.5 31.69999999999999 0  205.1 29.90000000000001 0  201.5 30.40000000000001 0  199.2 38.69999999999999 0  201.8 41.40000000000001 0  194.8 53.80000000000001 0  196.1 57.69999999999999 0  193 59 0  191.4 66.09999999999999 0  193.5 66.5 0  194.1 64.40000000000001 0  195.6 64.69999999999999 0  195.4 72.40000000000001 0  199.5 77.30000000000001 0  197.7 86.90000000000001 0  200.6 87.5 0  201.5 91 0  198 94.80000000000001 0  198.6 100 0  197.3 105.4 0  198 109.5 0  197 112.7 0  198.3 116.1 0  201.3 122 0  207.2 121 0  208.1 126.7 0  205.6 127.9 0  209.1 134.9 0  210.9 144.4 0  210.1 147.9 0  213 148.4 0  215.4 149.3 0  215.1 152.8 0  219.9 159.7 0  220.3 163.2 0  218.7 164.9 0  219.9 166.7 0  221.9 169.7 0  220 170.3 0  224.9 174.7 0  229.8 177.4 0  229.7 181 0  228 172.9 0  239 178 0  240.4 180 0  239 181.5 0  241.2 185.9 0  242.95 187.99 0  241.113414658978 187.995830429654 0  242.142964269982 187.9925620181905 0  243.6619187087475 187.2054164851183 0  244.631513060971 186.1368566403919 0  245.9520480703466 184.6815359886801 0  247.7505449816197 182.6994683581873 0  252.8666666668011 177.466666666539 0  255.5333333336077 174.9333333330727 0  257.9666666666661 165.4000000000025 0  258.9333333333339 161.3999999999974 0  259.3000000000018 153.8500000000108 0  259.849999999995 146.9000000000149 0  256.350000000011 143.9499999999989 0  250.8500000000015 141.5500000000051 0  246.1000000000042 134.450000000017 0  245.0000000000049 122.5000000000082 0  239.8250000000041 115.875000000004 0  236.9500000000083 113.1500000000079 0  234.0750000000041 110.4250000000039 0  228.6000000000041 105.0500000000042 0  226.25 98.15000000000002 0  224.5 87.65000000001388 0  227.8333333333301 80.66666666667 0  231.1666666666644 77.23333333333571 0  232.2500000000014 71.90000000000116 0  230.8999999999995 68.45000000000009 0  225.5500000000108 65.20000000001409 0  222.9333333333329 57.46666666667507 0  223.1666666666663 53.43333333333877 0  218.2500000000016 39.30000000000339 0  213.4000000000277 36.45000000000337 0  200.3500000000025 34.54999999999097 0  199.4666666666726 45.53333333332282 0  197.1333333333385 49.66666666665756 0  193.5499999999978 61.6999999999891 0  193.3999999999962 69.24999999999406 0  197.4499999999954 74.84999999999454 0  198.6000000000007 82.09999999999631 0  199.7500000000014 92.8999999999985 0  198.2999999999997 97.39999999999726 0  197.950000000001 102.699999999996 0  199.7999999999944 119.049999999989 0  204.2499999999946 121.5000000000009 0  207.6499999999987 123.8499999999919 0  207.35 131.4 0  209.9999999999998 139.649999999999 0  217.4999999999938 156.249999999991 0  223.4 172.2 0  234.349999999995 179.5000000000016 0  243.6879031604435 137.0140197666175 0  200.5383884465266 74.3488835611292 0  236.0631303447202 117.0934887033495 0  255.2860706566257 162.4962097513293 0  210.288597171716 124.9641969758756 0  200.5494091764226 101.6938959209836 0  221.0463142825589 155.4583368622661 0  213.2458552033902 137.0182369603261 0  202.5715495252679 76.72215432732189 0  203.3954031521662 88.63888283314805 0  204.2685850489914 91.3771816532193 0  227.6002395557545 108.6285485308707 0  203.628067965887 73.80056467640915 0  205.5882193517793 76.19298591547215 0  219.3893731065793 59.36381842571261 0  222.6962970705901 100.2685345181304 0  206.2147206748961 89.23684943534887 0  224.5717795045128 68.90112930058935 0  207.1505150846513 91.97409496002633 0  206.6973804802006 73.20614062920998 0  209.0198262461606 75.84435446174592 0  204.6828826698789 70.78585325419728 0  244.5505030757118 140.1958289722003 0  241.2713205316759 139.2760911012237 0  242.0887623359319 142.523888210035 0  238.8201809392432 141.5810446831215 0  239.6254755922404 144.8663288044098 0  238.0282380951174 138.3361101328854 0  235.5650201404635 140.6403522599634 0  234.7868703265066 137.3765638391416 0  232.3671992655526 139.7040340002533 0  231.5735594060041 136.4371341666237 0  203.6025996895933 45.13245413868078 0  209.0094500142995 89.77916893533093 0  234.0048963149566 134.0619286436701 0  230.7388584519252 133.0932019642386 0  256.0202376970822 152.4353991158102 0  233.1239077827668 142.9168616681826 0  229.9476468053365 142.0041066209365 0  207.8316386186595 70.1760146256688 0  205.8080150778045 67.77328389450008 0  210.1255397865818 92.58553759086743 0  249.9530000513888 175.7831884132348 0  230.7520925362455 145.2114145624654 0  227.5614746466729 144.2879078440436 0  226.855634298717 141.1029513419209 0  221.109901317114 86.07738557802102 0  221.3898452401857 82.41394785245797 0  233.1906280944642 130.7538222264552 0  229.849944657733 129.8156996791429 0  227.4514186000422 132.1240250470279 0  226.5693510741891 128.7503487535618 0  208.0732626511005 94.86195720558288 0  211.0579654481564 95.54875779444082 0  209.0041892644107 97.86214677695602 0  216.7276956906574 41.503774594868 0  224.4517166451922 143.3327513982825 0  222.7890579510523 161.0597281586643 0  209.0698801997012 67.10609773523754 0  206.9141710660066 64.58868367949086 0  211.5265666272545 70.15591236789595 0  218.2872405225432 83.97244872861398 0  207.7311279855657 86.71297189445447 0  242.9081583239214 145.8040728889821 0  240.4621480942806 148.1601866910276 0  243.7562457682554 149.0907552716282 0  241.3145175595932 151.4726760652338 0  244.57940289053 152.3666461928266 0  242.1615185950008 154.7794567484269 0  238.8718789959482 153.837018554675 0  239.7122407256576 157.1523621063041 0  236.4289375384117 156.2070529629317 0  237.2412111497984 159.5248795948406 0  240.5638486223294 160.4901132255754 0  238.1023772270576 162.8725976094984 0  241.406699334305 163.8359650846702 0  238.9630278156374 166.2175426435888 0  234.7361516891476 161.8928266488476 0  213.124654294145 93.56046727196781 0  212.0434836741439 98.5447165103807 0  209.9504013355788 100.9044854564887 0  213.0958854424699 101.5871381629478 0  210.9302285957408 103.9580876602797 0  214.0010858928389 104.7096094485587 0  211.9141605791952 107.0615795921763 0  214.9890206858068 107.8102538193681 0  212.9269247290344 110.1901972673309 0  216.0786784436673 110.8721476340726 0  209.7617142319936 109.4041944495815 0  213.932211035267 113.2627867337288 0  217.0813395790477 113.941453344218 0  218.441750941724 80.63655841437071 0  242.2412500877879 167.1781012200828 0  229.2280100589433 126.5393356137107 0  225.9203624138538 125.4446005931909 0  223.3571983269889 127.7265579015054 0  222.6136526124249 124.535547281476 0  225.3056527306165 122.1016033222114 0  220.3254947810712 126.7409252226328 0  201.0777098578984 116.3274181811247 0  219.7857338015156 123.3740225787907 0  228.3312248450329 147.5116593523427 0  223.7608055035202 140.2236832285434 0  221.3299816979287 142.3937311365609 0  245.4512147769152 155.7068319139237 0  214.9140854911084 116.3016229600955 0  241.4261562479406 177.9745543740275 0  202.8157779574545 68.56000166221941 0  240.0703975438099 175.788326095019 0  222.1092806876692 145.4935485219417 0  220.9446699547174 129.9892194059113 0  217.7131509102484 129.0121441451285 0  231.966766611991 173.6290727753235 0  244.7035101352062 164.8150950666352 0  215.4589412711449 82.35047797613059 0  218.5358717759109 108.3057574313637 0  210.0910095413371 63.89870618133642 0  207.8879031726656 61.27101234314142 0  219.5945508510063 49.26517889117938 0  204.4640092132492 79.16637174968085 0  219.054165325738 63.24726086273807 0  245.5364828646638 168.1932520030346 0  204.1722248369768 62.21708558088665 0  205.6821920907016 58.50393459316535 0  209.6155639374877 57.86856426712311 0  196.5553895895766 69.81481204083099 0  235.6123608690412 152.8874163252039 0  233.2157615582107 155.2532908181879 0  240.6837858645011 122.4172544901715 0  210.8141135626509 127.8682271622992 0  245.3812170314571 182.2522052029404 0  206.9456715292139 54.99559933887414 0  210.5075513436263 54.0697256538542 0  207.9169085133073 103.1765167571325 0  223.2431750051092 164.070583057325 0  225.7483443677002 162.1151723759482 0  206.0378951001477 96.94148998994152 0  242.6796154699829 175.6597339900036 0  214.6838055972238 146.7252062992904 0  211.9990465678071 115.5576487680909 0  221.4613603554043 78.78973924681317 0  218.3291154698718 77.0769598533563 0  200.3358005877804 107.1120377748188 0  247.4072167499741 149.4171847419639 0  211.6397508657857 39.55684201930068 0  226.8243927196049 72.17619845696734 0  215.354291780634 85.55308818793476 0  236.5600255652378 131.6759521500912 0  226.0129792461303 165.2837912620818 0  218.060680211082 117.0067370946569 0  220.2726382852709 114.6051380114157 0  212.8793579154693 118.3711453694285 0  215.022609143906 99.35520341734289 0  203.0459334752391 85.71272568041367 0  202.8915272398735 55.67723839797077 0  220.5465456567309 139.1747891305704 0  239.6921265383864 169.3260213165692 0  236.6712881821608 168.5826958099534 0  218.0125893802946 141.5012621699478 0  201.3193403438535 110.3399099823547 0  203.3799271438462 107.9393487975089 0  248.1978655115356 165.7601936670729 0  248.8804221900089 169.2105116441819 0  237.1867529048816 147.1869371163321 0  236.7369473929319 176.2832209442509 0  247.3010859001464 162.3677476585113 0  204.3727171343656 110.8209535355564 0  235.7766571132668 128.3537547116865 0  217.8932394506906 150
[...]
<PointData  Vectors="f_12"> 
<DataArray  type="Float64"  Name="f_12"  NumberOfComponents="3" format="ascii">7.1364306693970903e-01 7.7012879532947209e-01 2.5758330792385348e-01  7.5139156759936543e-01 5.9790458804342772e-01 5.7864560479498262e-01  6.8503653674268505e-01 2.7556364522664739e-01 8.0857408525903496e-01  6.3287560553778432e-01 1.9404555749833871e-01 7.0442406941777302e-01  5.0113897054912482e-01 1.0716153381399963e-01 2.0729312004174319e-01  4.9047658547616002e-01 1.1263496673687978e-01 1.5920770998395656e-01  4.8930939884078745e-01 1.0764763971424154e-01 1.5688766311143393e-01  4.8683185015266589e-01 1.2311057739036987e-01 1.3862624298084233e-01  4.8781338308416428e-01 1.1771898796933891e-01 1.4500687161593656e-01  4.9101736736195323e-01 1.1047312268533925e-01 1.6128898571841557e-01  5.1359674696709057e-01 8.4209134757171233e-02 2.6845392104024079e-01  5.2518800217768502e-01 7.8498160892521165e-02 3.2220137699469698e-01  5.4017604702213184e-01 7.7410571010523968e-02 3.8876918768420116e-01  5.1206694789651352e-01 8.5091215336274895e-02 2.6155192833039498e-01  4.9202365671551462e-01 1.2412562406110510e-01 1.5742283654476363e-01  4.9256191577401220e-01 2.1638393868178135e-01 1.0401608582380158e-01  5.0019980507745399e-01 2.5370303831911700e-01 1.0766435978960906e-01  5.3418672885860452e-01 2.5911563674419419e-01 2.4269879349560677e-01  7.1492862830852821e-01 3.3197706071441691e-01 8.2946460993510773e-01  7.3246643869484063e-01 4.0917462237787161e-01 7.8258067643587370e-01  7.3245713976491944e-01 3.9649458598615206e-01 7.9581715625610716e-01  7.5998561437838197e-01 4.7750763733781282e-01 7.4905397284794650e-01  7.1761158426353067e-01 6.7409476818171976e-01 4.0313299028116611e-01  5.8348154562240961e-01 6.1787290443369725e-01 9.8130449074191717e-02  6.0043285647577138e-01 6.5702523287275594e-01 1.1085284400720503e-01  5.8168591582027229e-01 6.1346329196944460e-01 9.6788379667910165e-02  5.8017554155426976e-01 6.0923694492427438e-01 9.6112537560228722e-02  5.7693916579111548e-01 6.0046097763143458e-01 9.4316914876844335e-02  5.7708904849999443e-01 6.0085553294024130e-01 9.4408716821056879e-02  5.7819717364211298e-01 6.0381984449156834e-01 9.5072771731183156e-02  5.7328715672459585e-01 5.8988020364092630e-01 9.2715456833394161e-02  5.6678499564649076e-01 5.7059922174780797e-01 8.9724481597435679e-02  5.6260905423146168e-01 5.5799535576034509e-01 8.7638913680875188e-02  5.6138612830003987e-01 5.5426268058496397e-01 8.6999818532462955e-02  5.6122513454006462e-01 5.5377615865804330e-01 8.6912252917395585e-02  5.6602808744801858e-01 5.6823266197975431e-01 8.9444596979931332e-02  5.7129292380148744e-01 5.8375064214799544e-01 9.2098088081631752e-02  6.1056515508639508e-01 6.7872863079066059e-01 1.1772331410471930e-01  6.3905765595204800e-01 7.1824756160078107e-01 1.5233579622478857e-01  6.5660175044948910e-01 7.3618339419229195e-01 1.7684611109959611e-01  7.2765384615679218e-01 7.0058970678875809e-01 3.8706081362539446e-01  7.2546739504207458e-01 6.8248455384471274e-01 4.0946187820093505e-01  6.8821812833730078e-01 7.2851294224123297e-01 2.6279145500802664e-01  7.0061606055739689e-01 7.1091151423983701e-01 3.1529198242024625e-01  7.0565309491545314e-01 4.7766777801330329e-01 6.4423976653039894e-01  5.7057282413056465e-01 1.8677000939130006e-01 4.5684288428925057e-01  4.9334025238626383e-01 1.2916911278927418e-01 1.6277609602850934e-01  4.9339553752889465e-01 1.3195046418348183e-01 1.6098531617123285e-01  4.9203526280700938e-01 1.1909539341063100e-01 1.6152309725245939e-01  4.9836276927950746e-01 9.5039986241750141e-02 1.9958798607539022e-01  5.0915479977518618e-01 8.5241535314402442e-02 2.4956704586928358e-01  5.2731007392156148e-01 7.8458381593198456e-02 3.3172935878284038e-01  5.4123714923806332e-01 7.8543153138342439e-02 3.9287424469651516e-01  5.5098492348573846e-01 7.9678902571830759e-02 4.3533399315889237e-01  5.5717039994583850e-01 8.1064124211373226e-02 4.6169487425497319e-01  5.6285767659545882e-01 8.2851243573499794e-02 4.8539173975231481e-01  5.5796653674633578e-01 8.1869801456715810e-02 4.6455082927411318e-01  5.7233783242754754e-01 8.7140677878684722e-02 5.2341652288644835e-01  5.7592920850359808e-01 8.8601181539151794e-02 5.3793080727851583e-01  5.7573911402139410e-01 8.8358422664126426e-02 5.3733728982610651e-01  5.5626133268282407e-01 8.1331973121377063e-02 4.5742261013034508e-01  5.5217916871950290e-01 8.0152581071354465e-02 4.4035043199322593e-01  5.4769552708347080e-01 7.9969386166699089e-02 4.2037765335127986e-01  5.3469918975968467e-01 7.9422760601817466e-02 3.6322908032024420e-01  5.2226175120204754e-01 7.9574457004356641e-02 3.0905102352221031e-01  5.0563439242784292e-01 8.7568862661362365e-02 2.3436627890225142e-01  5.0616901555341420e-01 8.9055031304562077e-02 2.3683365175476676e-01  5.0791556646265923e-01 8.8252512399945512e-02 2.4505103695989558e-01  5.0947479268487694e-01 8.8386983283613982e-02 2.5200057790338909e-01  5.1369522315750216e-01 8.8943252482783994e-02 2.7070820274091884e-01  5.1291343568648751e-01 8.7829145392892799e-02 2.6774373179590200e-01  5.2496719027677818e-01 9.0702627343631437e-02 3.2174131336807832e-01  6.3474787022164514e-01 1.7181442838385999e-01 7.2930366331867713e-01  6.6068645212631183e-01 1.9839856434902717e-01 8.0164691813546551e-01  5.4346108880005162e-01 1.0693638442705677e-01 3.9269420664331622e-01  6.7964615650559179e-01 3.0605061068589862e-01 7.6073811431535798e-01  7.2282540067846113e-01 5.4112946432144005e-01 5.9746782506191520e-01  7.3124924942020342e-01 6.3364831918674835e-01 4.9099170021467409e-01  7.2022825163004467e-01 7.5122067978987894e-01 2.9836581392779438e-01  7.1720920972879065e-01 7.6118900259963707e-01 2.7759419872236024e-01  7.1567692690414753e-01 7.6465293031757131e-01 2.6959723385560530e-01  7.1659285111252691e-01 7.6257988035632451e-01 2.7438821351919379e-01  7.1894365283005335e-01 7.5660345890459801e-01 2.8762133566735132e-01  7.2354403212715956e-01 7.4388000113220354e-01 3.1499595672041653e-01  7.3160252356409583e-01 7.2183595976417603e-01 3.6231235899221864e-01  7.4258419662064190e-01 6.7661657740861425e-01 4.4834180665343010e-01  7.4088553054793738e-01 4.7938943659211697e-01 7.1648790085243930e-01  7.1398187692343817e-01 3.5748624159537634e-01 8.0043086306818667e-01  5.5286307393467460e-01 1.2049775964132912e-01 4.2900125703181757e-01  5.1608393043906597e-01 1.0710469181368380e-01 2.7264427489608140e-01  4.9464503083276945e-01 1.1098901393865454e-01 1.7755399855225096e-01  4.8930641024799204e-01 1.0952803218530935e-01 1.5592358840230211e-01  4.8872464104326391e-01 1.1214312074577978e-01 1.5213148873098215e-01  4.8680526365814125e-01 1.2128144827227022e-01 1.3931449505755508e-01  5.0044961390008424e-01 9.5713740588742713e-02 2.0699596374007850e-01  5.3333089091691332e-01 7.7401352606055601e-02 3.5858646307589892e-01  5.4062569381171122e-01 7.7528301756580889e-02 3.9066286648388365e-01  5.3506368733546528e-01 7.7721815669600250e-02 3.6593598766419821e-01  5.2460308871597505e-01 7.9527223500270361e-02 3.1882418263541024e-01  5.0106893167390543e-01 9.7489767095277735e-02 2.0853305634504202e-01  4.8855004670700580e-01 1.7249423259137142e-01 1.1619936791004108e-01  5.1558207930513644e-01 2.8864848459894815e-01 1.4213268538536922e-01  5.7611503065752268e-01 1.8749455169205206e-01 4.8380106840071224e-01  6.6374836399533743e-01 2.4423218735871222e-01 7.7002608987690258e-01  7.2033061520718911e-01 3.4558766618255959e-01 8.3007184664356648e-01  7.4340016777623141e-01 4.2842895213640414e-01 7.7790814473824299e-01  7.4172234609295495e-01 5.3169122089587151e-01 6.4998804577333391e-01  6.6574328922839177e-01 7.2220317300084758e-01 2.1649221647368230e-01  6.2329429610814158e-01 6.9345431412726599e-01 1.3789504130102201e-01  5.7496688024435627e-01 5.9470247200225368e-01 9.3513323639821982e-02  5.7117164244441165e-01 5.8366673161507765e-01 9.1765589438643311e-02  5.6296792298944964e-01 5.5906570346711448e-01 8.7835257679969136e-02  5.8259277646056806e-01 6.1553744233126240e-01 9.7634208475644246e-02  5.9426441195834279e-01 6.4538163648133184e-01 1.0414120422919898e-01  6.6846564611873893e-01 7.3729239108402322e-01 2.0427864343363220e-01  7.2694729767439303e-01 6.4831036718683166e-01 4.6368243121920361e-01  6.5086727959288215e-01 3.0457057950756339e-01 6.7080336073956881e-01  5.0570166925105098e-01 1.3768349134995322e-01 2.0927729702368533e-01  4.9537301852119681e-01 1.0286253452297063e-01 1.8335789292150473e-01  5.0214150948973169e-01 9.0324781475638452e-02 2.1757386159386763e-01  5.1877817414805061e-01 8.0598995710654986e-02 2.9333265351239696e-01  5.6120531035623622e-01 8.2298373604130878e-02 4.7854235990638905e-01  5.6083039152156688e-01 8.2350264108677643e-02 4.7684828143189861e-01  5.6437276361659561e-01 8.4104076419961649e-02 4.9095734562312587e-01  5.7694445569330166e-01 8.8998264700409571e-02 5.4202898990903314e-01  5.6802563374747628e-01 8.5132554921104248e-02 5.0625250567348901e-01  5.1303409635127162e-01 8.2495119444870507e-02 2.6785895869023707e-01  5.2145543352470403e-01 9.1089570104660372e-02 3.0484051154484437e-01  6.5929584118016260e-01 2.0217523505096799e-01 7.9649335012406353e-01  4.9622770370162472e-01 1.0070479196353864e-01 1.8721854593524070e-01  6.2405325357648722e-01 2.4937579999169893e-01 6.2613851040939295e-01  5.3901714696672787e-01 7.7529119269805949e-02 3.8355785562111189e-01  5.2616168223239324e-01 1.1401467105583292e-01 3.1306574261415016e-01  5.6662762539433087e-01 8.4952525039735230e-02 5.0016379998463323e-01  5.1293920394592984e-01 8.3512616793855993e-02 2.6651273410247600e-01  5.0933014763262741e-01 8.4945202724765093e-02 2.5079408204838510e-01  5.6903873947297490e-01 8.5609547719214266e-02 5.1028423417839075e-01  5.6643066126250075e-01 1.7676302491836612e-01 4.4958354338168910e-01  4.9184368123506556e-01 1.3419435971076471e-01 1.5277057716743522e-01  4.9111680113160311e-01 1.2683277692906059e-01 1.5343568954415313e-01  5.0755190072760981e-01 8.8701557608305878e-02 2.4044074947046193e-01  6.1422171723232488e-01 2.2721991891884788e-01 6.0934064603042992e-01  5.6461837167107276e-01 1.7463144072783737e-01 4.4378209587863848e-01  6.8740777751719895e-01 7.1675322341985526e-01 2.7653802423525925e-01  4.8878763669819913e-01 1.4755033196661491e-01 1.3163748950552956e-01  4.9135137394895062e-01 1.4811828336895175e-01 1.4234226139284475e-01  7.2290279764142107e-01 4.1647717303048759e-01 7.5609555871352685e-01  4.9030091599082676e-01 1.4152351063127894e-01 1.4162307465588178e-01  6.1297319068878409e-01 2.2188605533880473e-01 6.0963168814309754e-01  5.6279526025252014e-01 1.7519006080577637e-01 4.3581238452977356e-01  6.6721100080053763e-01 3.3503258621763188e-01 6.9664604934591112e-01  4.9049378690491724e-01 1.1105277705627507e-01 1.5894124276488436e-01  4.9473651088660325e-01 1.0213936679124794e-01 1.8052203764918781e-01  4.9002408131761316e-01 1.1206772055218214e-01 1.5659271188527227e-01  4.9438530532646474e-01 1.0244137780220947e-01 1.7897939813963978e-01  4.9008282978819567e-01 1.1243685188040720e-01 1.5664587510895236e-01  5.0066287895211359e-01 9.3661592384916115e-02 2.0915577337628344e-01  5.0077148173637898e-01 9.3401239853334400e-02 2.0976081842730876e-01  5.0858954190485250e-01 8.6650164548944544e-02 2.4601838139425258e-01  5.0917126400992929e-01 8.6274212664523134e-02 2.4870270646221884e-01  5.1823454985347761e-01 8.1836578918786401e-02 2.8991180287462848e-01  5.7902005669909851e-01 6.0560332125952476e-01 9.5981585844105655e-02  4.9181272054370112e-01 1.6888234882332687e-01 1.3134489935801202e-01  5.1808507244945545e-01 8.1771745641809071e-02 2.8929029493065600e-01  5.2822840866680754e-01 7.9233269022441530e-02 3.3492720334531711e-01  4.9196844009319723e-01 1.1576117300761855e-01 1.6372171854886353e-01  5.0173694946072955e-01 9.2380877962769087e-02 2.1431546929193518e-01  5.1064527085653022e-01 8.5415983119657993e-02 2.5544766185455037e-01  6.6794961241056694e-01 3.3260028890514548e-01 7.0137533393663987e-01  7.0421414133296023e-01 4.8550953865614421e-01 6.3050465979778281e-01  4.9010473093031659e-01 1.6081609151739537e-01 1.2934595408304331e-01  7.2911541827546511e-01 4.4905159127518196e-01 7.2978070915938942e-01  5.0315209163773467e-01 9.1032159362653658e-02 2.2094394288253055e-01  5.1261862968146188e-01 8.4344062496410813e-02 2.6447433162413492e-01  5.2117330471141021e-01 8.1132847564790750e-02 3.0307985243540336e-01  5.1894652897503268e-01 2.8558275416440659e-01 1.5800264091473010e-01  5.3365450324240415e-01 2.4935900571469286e-01 2.4837755546420143e-01  5.2809475625279578e-01 7.8990336545903525e-02 3.3449430488036447e-01  5.3718424621938010e-01 7.8302516414699000e-02 3.7495783620834877e-01  5.3872714087688689e-01 7.8680463617770049e-02 3.8150992401175199e-01  5.4545515241971099e-01 7.8860506330244981e-02 4.1120269361349360e-01  4.9060075766913508e-01 1.3145366056043206e-01 1.4823389109123788e-01  4.8947718760630970e-01 1.4615447046180369e-01 1.3534890715969319e-01  4.9222076727197073e-01 1.1975158316007320e-01 1.6095587545077145e-01  5.7639759553710379e-01 5.9870587649286200e-01 9.4258146875172075e-02  5.2372717969435434e-01 8.0530762258530134e-02 3.1455375343916209e-01  5.0373312044358909e-01 9.0937778291406202e-02 2.2504391011241992e-01  7.0667603443755300e-01 4.9050501659771012e-01 6.3127947038980936e-01  7.1151374986356841e-01 6.2699560323534043e-01 4.6006433359961985e-01  6.6391117177630576e-01 3.1108513489319295e-01 7.1314373779552420e-01  5.2012463812105958e-01 2.6282020919651600e-01 1.8070646019377756e-01  4.9514831706551693e-01 1.7000026084829428e-01 1.4423156767772288e-01  4.8734819961194326e-01 1.2220128499139694e-01 1.4085616584065946e-01  4.8758525984010492e-01 1.2342258786130954e-01 1.4114553539158178e-01  4.8637769333499387e-01 1.3237527244347924e-01 1.3175925064131400e-01  4.8688060340087641e-01 1.3480708051732196e-01 1.3241430861791573e-01  4.8717179165939317e-01 1.4128203724766841e-01 1.3009639511479437e-01  4.8833058593067286e-01 1.4465297831560528e-01 1.3276646597289912e-01  4.8784443363811841e-01 1.3484913480808838e-01 1.3621707292362317e-01  4.9012552179794189e-01 1.4414450240501789e-01 1.4020925955136648e-01  4.8940978558910148e-01 1.3193526263456090e-01 1.4410809501412272e-01  4.9282910465915242e-01 1.3915995828491651e-01 1.5402306158299606e-01  4.9668736658469959e-01 1.4768548418136915e-01 1.6481688103882669e-01  5.0198559728485803e-01 1.4039030269845673e-01 1.9134053464793022e-01  5.1097949498969197e-01 1.4435173125433223e-01 2.2733845689557278e-01  5.2149589901887772e-01 1.3753585460904380e-01 2.7755652350997634e-01  4.9695242229326736e-01 1.2995478678462979e-01 1.7633568297172594e-01  4.9041249266393355e-01 1.7748704709965024e-01 1.2029337667282310e-01  4.9024363600891313e-01 1.3039179066558368e-01 1.4721142152337519e-01  4.9534583338128946e-01 1.0846349847675155e-01 1.7952893380678200e-01  4.9274770234720305e-01 1.1568918485239163e-01 1.6517857364790373e-01  5.0001494624118481e-01 9.8581214076199963e-02 2.0382592902336688e-01  4.9751713106039297e-01 1.0230971418664184e-01 1.9159916902706645e-01  5.0648780236324564e-01 9.0542162059126088e-02 2.3505813517125451e-01  5.0425387850367320e-01 9.2405837462484305e-02 2.2471100876271097e-01  5.1459712490268539e-01 8.4691506961737537e-02 2.7269338893949024e-01  5.1257401231771271e-01 8.5409404920176402e-02 2.6363456015508541e-01  5.1809940413676381e-01 8.3295063009587458e-02 2.8849882892607831e-01  5.2382756947773945e-01 8.1128086090881443e-02 3.1461395027345779e-01  5.2242039610002799e-01 8.1199955938351692e-02 3.0845147497323866e-01  5.3314934355155652e-01 2.2551639206575153e-01 2.6541857993679330e-01  5.3929935671859175e-01 1.4298998749737835e-01 3.5322034560335502e-01  5.4253838210815974e-01 7.8198194089462408e-02 3.9875359409557698e-01  5.4718553427468830e-01 7.8909762311258014e-02 4.1885427702565076e-01  5.5192371012417429e-01 8.0068660814861761e-02 4.3900640803888002e-01  5.5024504059712032e-01 7.9755763421147277e-02 4.3178919340864447e-01  5.4378781342904392e-01 7.8551251841456990e-02 4.0403469511760864e-01  5.5647252227896415e-01 8.1344677137023105e-02 4.5818602758748417e-01  5.5731197402927424e-01 8.1299360478626764e-02 4.6208539400518556e-01  5.5120567058715630e-01 8.0298409412319263e-02 4.3562483994968559e-01  5.0511043294524582e-01 8.9284348416348067e-02 2.3011245311110232e-01  5.3293983081717744e-01 7.9384582140909238e-02 3.5554129203024487e-01  5.3595120011070008e-01 7.9319483691747503e-02 3.6885485485867020e-01  4.9045256552356903e-01 1.4684527836372921e-01 1.3999217124707525e-01  5.3369422318763982e-01 7.9581445744490401e-02 3.5875679418116929e-01  7.0672862747206822e-01 4.2361803709846518e-01 7.0650335207990766e-01  7.0299826186779346e-01 4.8470116132249819e-01 6.2779138369695109e-01  6.6454694193990882e-01 2.7299803614681273e-01 7.4651499278190259e-01  5.2616833305198329e-01 8.0000412910840576e-02 3.2554671241494759e-01  5.5690561946556194e-01 8.1509907335736029e-02 4.5997440395438000e-01  5.6329133519643493e-01 8.3514445856645039e-02 4.8663073729462791e-01  5.8146178177515451e-01 1.3349987725614157e-01 5.4174696503841424e-01  5.2491165054723732e-01 1.4243286322465565e-01 2.8952726896568870e-01  5.1899687766224811e-01 2.3301933572841510e-01 1.9887170117631653e-01  5.0261527651076077e-01 9.3622905311051566e-02 2.1720209096254930e-01  7.1184537568715212e-01 6.3447702463463918e-01 4.4995671673808130e-01  6.9006187455006074e-01 7.0665268188099506e-01 2.9771817421728414e-01  5.9689942888277314e-01 6.4867375087425971e-01 1.0849130274813588e-01  5.3038786689700879e-01 1.5828062029482881e-01 3.0349932804909424e-01  7.2167115042830166e-01 6.4346360890026255e-01 4.5736984879760334e-01  5.6627471706857879e-01 1.5313501688585740e-01 4.6552857016018551e-01  6.9224954077239631e-01 7.0540745860603937e-01 3.0486971824465831e-01  6.5708542029877992e-01 7.2219351310846880e-01 1.9489149681687354e-01  6.5711728134233893e-01 7.2130452058065941e-01 1.9624906597101818e-01  7.1665578991229217e-01 5.5797361244449328e-01 5.6569204297848430e-01  4.8929716681872371e-01 1.2136753303805829e-01 1.4910815558942858e-01  4.9097324374258788e-01 1.1762236790737732e-01 1.5792220763912596e-01  5.3681308998846877e-01 7.7458789433692068e-02 3.7384644326809546e-01  5.7207930085371050e-01 8.6975352572275566e-02 5.2244396196531662e-01  7.3711790579383096e-01 6.8072699300757267e-01 4.3300732532302660e-01  6.2534972328173777e-01 6.9636176233687130e-01 1.4022968830060439e-01  6.2182170522413516e-01 6.9103500715773425e-01 1.3620687857704389e-01  5.0351722330602666e-01 9.3851024509046838e-02 2.2087038662032665e-01  5.0577357399639511e-01 9.1657183219102448e-02 2.3400682031270795e-01  5.0166139137451482e-01 9.7241752114148164e-02 2.1337127890689814e-01  4.9446757523372875e-01 1.1037627749870674e-01 1.7517530748003149e-01  6.8413683642124323e-01 3.3372672727597791e-01 7.4573111504682366e-01  5.4530112063280811e-01 7.9812056194867642e-02 4.0982886592715662e-01  5.3553739089052910e-01 7.9660491434823899e-02 3.6683442717776138e-01  5.5460974865975532e-01 2.0079694118496477e-01 3.7912774879327110e-01  5.5862167006123598e-01 1.9038115015399754e-01 4.0527729617310509e-01  5.3117505138737253e-01 7.8753119575311142e-02 3.4838099904035869e-01  4.8651943673268910e-01 1.3419942249844263e-01 1.3144432794250982e-01  5.7164934777684862e-01 5.8500521415360085e-01 9.2054359239892261e-02  6.9199519795705133e-01 3.0675200793918678e-01 7.9689596556071052e-01  5.0898243300840917e-01 2.4911661191278137e-01 1.4542051520243779e-01  5.1912868137152246e-01 8.1299798080447697e-02 2.9405838041462268e-01  5.0653069462618683e-01 9.6782558783636230e-02 2.3504213506578023e-01  5.3282866281271490e-01 7.9378205354458498e-02 3.5506536285603174e-01  5.2277003415127166e-01 8.0790152412767366e-02 3.1020201139436687e-01  5.4418629710462352e-01 7.9850122429984724e-02 4.0489941870248097e-01  4.8915529536850438e-01 1.3744896313972291e-01 1.3897520973539496e-01  4.9560829036790188e-01 1.4115976067793012e-01 1.6449055940158980e-01  6.2559760415273302e-01 6.9832513095822080e-01 1.3880349375361081e-01  5.4587500542