<?xml version="1.0"?>
<VTKFile type="UnstructuredGrid"  version="0.1"  >
<UnstructuredGrid>
<Piece  NumberOfPoints="600" NumberOfCells="1069">
<Points>
<DataArray  type="Float64"  NumberOfComponents="3"  format="ascii">239.8 188 0  250.2 180 0  258.2 172.4 0  257 169.4 0  259.9 157.4 0  258.7 150.3 0  261 143.5 0  251.7 144.4 0  250 138.7 0  247 138.1 0  245.2 130.8 0  247.3 126.4 0  242.7 118.6 0  231.2 107.7 0  226 102.4 0  226.5 93.90000000000001 0  224.5 91.19999999999999 0  224.5 84.09999999999999 0  234.5 73.80000000000001 0  228.4 68.90000000000001 0  230 70 0  233.4 68 0  222.7 61.5 0  220.6 45.5 0  223.4 49.40000000000001 0  224 47 0  221.8 43.09999999999999 0  221 38.40000000000001 0  219.5 38.5 0  219.4 41.69999999999999 0  217.1 36.90000000000001 0  209.7 36 0  209.5 31.69999999999999 0  205.1 29.90000000000001 0  201.5 30.40000000000001 0  199.2 38.69999999999999 0  201.8 41.40000000000001 0  194.8 53.80000000000001 0  196.1 57.69999999999999 0  193 59 0  191.4 66.09999999999999 0  193.5 66.5 0  194.1 64.40000000000001 0  195.6 64.69999999999999 0  195.4 72.40000000000001 0  199.5 77.30000000000001 0  197.7 86.90000000000001 0  200.6 87.5 0  201.5 91 0  198 94.80000000000001 0  198.6 100 0  197.3 105.4 0  198 109.5 0  197 112.7 0  198.3 116.1 0  201.3 122 0  207.2 121 0  208.1 126.7 0  205.6 127.9 0  209.1 134.9 0  210.9 144.4 0  210.1 147.9 0  213 148.4 0  215.4 149.3 0  215.1 152.8 0  219.9 159.7 0  220.3 163.2 0  218.7 164.9 0  219.9 166.7 0  221.9 169.7 0  220 170.3 0  224.9 174.7 0  229.8 177.4 0  229.7 181 0  228 172.9 0  239 178 0  240.4 180 0  239 181.5 0  241.2 185.9 0  242.95 187.99 0  241.113414658978 187.995830429654 0  242.142964269982 187.9925620181905 0  243.6619187087475 187.2054164851183 0  244.631513060971 186.1368566403919 0  245.9520480703466 184.6815359886801 0  247.7505449816197 182.6994683581873 0  252.8666666668011 177.466666666539 0  255.5333333336077 174.9333333330727 0  257.9666666666661 165.4000000000025 0  258.9333333333339 161.3999999999974 0  259.3000000000018 153.8500000000108 0  259.849999999995 146.9000000000149 0  256.350000000011 143.9499999999989 0  250.8500000000015 141.5500000000051 0  246.1000000000042 134.450000000017 0  245.0000000000049 122.5000000000082 0  239.8250000000041 115.875000000004 0  236.9500000000083 113.1500000000079 0  234.0750000000041 110.4250000000039 0  228.6000000000041 105.0500000000042 0  226.25 98.15000000000002 0  224.5 87.65000000001388 0  227.8333333333301 80.66666666667 0  231.1666666666644 77.23333333333571 0  232.2500000000014 71.90000000000116 0  230.8999999999995 68.45000000000009 0  225.5500000000108 65.20000000001409 0  222.9333333333329 57.46666666667507 0  223.1666666666663 53.43333333333877 0  218.2500000000016 39.30000000000339 0  213.4000000000277 36.45000000000337 0  200.3500000000025 34.54999999999097 0  199.4666666666726 45.53333333332282 0  197.1333333333385 49.66666666665756 0  193.5499999999978 61.6999999999891 0  193.3999999999962 69.24999999999406 0  197.4499999999954 74.84999999999454 0  198.6000000000007 82.09999999999631 0  199.7500000000014 92.8999999999985 0  198.2999999999997 97.39999999999726 0  197.950000000001 102.699999999996 0  199.7999999999944 119.049999999989 0  204.2499999999946 121.5000000000009 0  207.6499999999987 123.8499999999919 0  207.35 131.4 0  209.9999999999998 139.649999999999 0  217.4999999999938 156.249999999991 0  223.4 172.2 0  234.349999999995 179.5000000000016 0  243.6879031604435 137.0140197666175 0  200.5383884465266 74.3488835611292 0  236.0631303447202 117.0934887033495 0  255.2860706566257 162.4962097513293 0  210.288597171716 124.9641969758756 0  200.5494091764226 101.6938959209836 0  221.0463142825589 155.4583368622661 0  213.2458552033902 137.0182369603261 0  202.5715495252679 76.72215432732189 0  203.3954031521662 88.63888283314805 0  204.2685850489914 91.3771816532193 0  227.6002395557545 108.6285485308707 0  203.628067965887 73.80056467640915 0  205.5882193517793 76.19298591547215 0  219.3893731065793 59.36381842571261 0  222.6962970705901 100.2685345181304 0  206.2147206748961 89.23684943534887 0  224.5717795045128 68.90112930058935 0  207.1505150846513 91.97409496002633 0  206.6973804802006 73.20614062920998 0  209.0198262461606 75.84435446174592 0  204.6828826698789 70.78585325419728 0  244.5505030757118 140.1958289722003 0  241.2713205316759 139.2760911012237 0  242.0887623359319 142.523888210035 0  238.8201809392432 141.5810446831215 0  239.6254755922404 144.8663288044098 0  238.0282380951174 138.3361101328854 0  235.5650201404635 140.6403522599634 0  234.7868703265066 137.3765638391416 0  232.3671992655526 139.7040340002533 0  231.5735594060041 136.4371341666237 0  203.6025996895933 45.13245413868078 0  209.0094500142995 89.77916893533093 0  234.0048963149566 134.0619286436701 0  230.7388584519252 133.0932019642386 0  256.0202376970822 152.4353991158102 0  233.1239077827668 142.9168616681826 0  229.9476468053365 142.0041066209365 0  207.8316386186595 70.1760146256688 0  205.8080150778045 67.77328389450008 0  210.1255397865818 92.58553759086743 0  249.9530000513888 175.7831884132348 0  230.7520925362455 145.2114145624654 0  227.5614746466729 144.2879078440436 0  226.855634298717 141.1029513419209 0  221.109901317114 86.07738557802102 0  221.3898452401857 82.41394785245797 0  233.1906280944642 130.7538222264552 0  229.849944657733 129.8156996791429 0  227.4514186000422 132.1240250470279 0  226.5693510741891 128.7503487535618 0  208.0732626511005 94.86195720558288 0  211.0579654481564 95.54875779444082 0  209.0041892644107 97.86214677695602 0  216.7276956906574 41.503774594868 0  224.4517166451922 143.3327513982825 0  222.7890579510523 161.0597281586643 0  209.0698801997012 67.10609773523754 0  206.9141710660066 64.58868367949086 0  211.5265666272545 70.15591236789595 0  218.2872405225432 83.97244872861398 0  207.7311279855657 86.71297189445447 0  242.9081583239214 145.8040728889821 0  240.4621480942806 148.1601866910276 0  243.7562457682554 149.0907552716282 0  241.3145175595932 151.4726760652338 0  244.57940289053 152.3666461928266 0  242.1615185950008 154.7794567484269 0  238.8718789959482 153.837018554675 0  239.7122407256576 157.1523621063041 0  236.4289375384117 156.2070529629317 0  237.2412111497984 159.5248795948406 0  240.5638486223294 160.4901132255754 0  238.1023772270576 162.8725976094984 0  241.406699334305 163.8359650846702 0  238.9630278156374 166.2175426435888 0  234.7361516891476 161.8928266488476 0  213.124654294145 93.56046727196781 0  212.0434836741439 98.5447165103807 0  209.9504013355788 100.9044854564887 0  213.0958854424699 101.5871381629478 0  210.9302285957408 103.9580876602797 0  214.0010858928389 104.7096094485587 0  211.9141605791952 107.0615795921763 0  214.9890206858068 107.8102538193681 0  212.9269247290344 110.1901972673309 0  216.0786784436673 110.8721476340726 0  209.7617142319936 109.4041944495815 0  213.932211035267 113.2627867337288 0  217.0813395790477 113.941453344218 0  218.441750941724 80.63655841437071 0  242.2412500877879 167.1781012200828 0  229.2280100589433 126.5393356137107 0  225.9203624138538 125.4446005931909 0  223.3571983269889 127.7265579015054 0  222.6136526124249 124.535547281476 0  225.3056527306165 122.1016033222114 0  220.3254947810712 126.7409252226328 0  201.0777098578984 116.3274181811247 0  219.7857338015156 123.3740225787907 0  228.3312248450329 147.5116593523427 0  223.7608055035202 140.2236832285434 0  221.3299816979287 142.3937311365609 0  245.4512147769152 155.7068319139237 0  214.9140854911084 116.3016229600955 0  241.4261562479406 177.9745543740275 0  202.8157779574545 68.56000166221941 0  240.0703975438099 175.788326095019 0  222.1092806876692 145.4935485219417 0  220.9446699547174 129.9892194059113 0  217.7131509102484 129.0121441451285 0  231.966766611991 173.6290727753235 0  244.7035101352062 164.8150950666352 0  215.4589412711449 82.35047797613059 0  218.5358717759109 108.3057574313637 0  210.0910095413371 63.89870618133642 0  207.8879031726656 61.27101234314142 0  219.5945508510063 49.26517889117938 0  204.4640092132492 79.16637174968085 0  219.054165325738 63.24726086273807 0  245.5364828646638 168.1932520030346 0  204.1722248369768 62.21708558088665 0  205.6821920907016 58.50393459316535 0  209.6155639374877 57.86856426712311 0  196.5553895895766 69.81481204083099 0  235.6123608690412 152.8874163252039 0  233.2157615582107 155.2532908181879 0  240.6837858645011 122.4172544901715 0  210.8141135626509 127.8682271622992 0  245.3812170314571 182.2522052029404 0  206.9456715292139 54.99559933887414 0  210.5075513436263 54.0697256538542 0  207.9169085133073 103.1765167571325 0  223.2431750051092 164.070583057325 0  225.7483443677002 162.1151723759482 0  206.0378951001477 96.94148998994152 0  242.6796154699829 175.6597339900036 0  214.6838055972238 146.7252062992904 0  211.9990465678071 115.5576487680909 0  221.4613603554043 78.78973924681317 0  218.3291154698718 77.0769598533563 0  200.3358005877804 107.1120377748188 0  247.4072167499741 149.4171847419639 0  211.6397508657857 39.55684201930068 0  226.8243927196049 72.17619845696734 0  215.354291780634 85.55308818793476 0  236.5600255652378 131.6759521500912 0  226.0129792461303 165.2837912620818 0  218.060680211082 117.0067370946569 0  220.2726382852709 114.6051380114157 0  212.8793579154693 118.3711453694285 0  215.022609143906 99.35520341734289 0  203.0459334752391 85.71272568041367 0  202.8915272398735 55.67723839797077 0  220.5465456567309 139.1747891305704 0  239.6921265383864 169.3260213165692 0  236.6712881821608 168.5826958099534 0  218.0125893802946 141.5012621699478 0  201.3193403438535 110.3399099823547 0  203.3799271438462 107.9393487975089 0  248.1978655115356 165.7601936670729 0  248.8804221900089 169.2105116441819 0  237.1867529048816 147.1869371163321 0  236.7369473929319 176.2832209442509 0  247.3010859001464 162.3677476585113 0  204.3727171343656 110.8209535355564 0  235.7766571132668 128.3537547116865 0  217.8932394506906 150
[...]
<PointData  Vectors="f_12"> 
<DataArray  type="Float64"  Name="f_12"  NumberOfComponents="3" format="ascii">5.1767720311016541e-01 7.7482154462610919e-02 2.9059086041661469e-01  5.0561803722520759e-01 8.3287602617945808e-02 2.3581624596694598e-01  5.0323683758180637e-01 8.4049551850634174e-02 2.2531933722020955e-01  4.9930621786346441e-01 8.9530829468761966e-02 2.0593647237829810e-01  4.8586165815591287e-01 1.1666982259184824e-01 1.3802660122061164e-01  4.8361449129336476e-01 1.4518964644540949e-01 1.1383566742015681e-01  4.8207528275132444e-01 1.4247976575948265e-01 1.0985427520656414e-01  4.9660132695442755e-01 2.4725289248746568e-01 9.8410987894547372e-02  5.1353035811687564e-01 3.5422528530395830e-01 8.5219897177826617e-02  5.2451413203265362e-01 4.0428164290453084e-01 8.6337187106043559e-02  5.4324663425728925e-01 4.8420793439295706e-01 8.7307252066042978e-02  5.3642963893105455e-01 4.6309438842030143e-01 8.1633614579017980e-02  5.3829633874580274e-01 4.5969343519669614e-01 9.0807707864532752e-02  4.9316757699999908e-01 1.6976921464386741e-01 1.3528176648098669e-01  4.8754816327944461e-01 1.1517658015211912e-01 1.4559001122744014e-01  4.9877594669346725e-01 2.2767055229705627e-01 1.1906860685514327e-01  5.2278107066420310e-01 3.2924583852772532e-01 1.3677099436539433e-01  6.5176921007310429e-01 6.1161350532824976e-01 3.2085207747047845e-01  7.4519957643876178e-01 6.2302542683660844e-01 5.3173503142657574e-01  7.0135659323171029e-01 3.8330662162373369e-01 7.4254213653705503e-01  7.2016253596355151e-01 4.6271472868813746e-01 6.9369009882494947e-01  7.2862650315883881e-01 4.7606586693081249e-01 6.9782985100950434e-01  6.3499864267497985e-01 1.5722966931615906e-01 7.3695348650015080e-01  7.7344093552357862e-01 4.4928550379873206e-01 7.9289051861732218e-01  7.4446525505697247e-01 3.4994859130227018e-01 8.5663304115899019e-01  7.7752349877005267e-01 4.6386672223964392e-01 7.8085798389370309e-01  7.8039461284214406e-01 4.7733298932137025e-01 7.6829184501344949e-01  7.8873915597386390e-01 5.1384120604330719e-01 7.3332639938039756e-01  7.8824311487567544e-01 5.1178529254712934e-01 7.3521757191984793e-01  7.8415704903623140e-01 4.9435057847523728e-01 7.5208225019623143e-01  7.9059861020817035e-01 5.2878837278186419e-01 7.1627195488803552e-01  7.9351607251843215e-01 5.5739862402256024e-01 6.8236965300212682e-01  7.9819962795700239e-01 5.9340057168341120e-01 6.3838139823252815e-01  7.9917298261646441e-01 6.0249776884148176e-01 6.2660896443055925e-01  7.9902716061204293e-01 6.0183808424814711e-01 6.2743541479552944e-01  7.8919129166882285e-01 5.3793618842886026e-01 7.0344917069635748e-01  7.7786469803681513e-01 4.7943439647051384e-01 7.6359350492131894e-01  7.0829394371416854e-01 2.6053108346875786e-01 8.6592396399842253e-01  6.9263908698056742e-01 2.3592241153752652e-01 8.5043574815872791e-01  6.8746667980871856e-01 2.3180521919147387e-01 8.4226663495322229e-01  7.2539926125980991e-01 3.6019784534569432e-01 8.1839915926972828e-01  7.2253918908752168e-01 3.5423903452768341e-01 8.1849966020593412e-01  6.9354542216461279e-01 2.5754287554121225e-01 8.3901465650227403e-01  6.9885664955708937e-01 2.7703351867119758e-01 8.3580732922725332e-01  7.2506268943376539e-01 4.0601660483896290e-01 7.6976514672831942e-01  6.9416605252542818e-01 5.2786520248416191e-01 5.4763758371521976e-01  5.7658994387071694e-01 5.3922327038412066e-01 1.5582658809305250e-01  5.6564739717217249e-01 4.9241788744236115e-01 1.5888232481453327e-01  5.1325049030733350e-01 2.9914671531725062e-01 1.2293779330923794e-01  4.8676363843803805e-01 1.7134029422379482e-01 1.0998296303556603e-01  4.8469199324158757e-01 1.3499708134472704e-01 1.2348708362603689e-01  4.8819232035746113e-01 1.1459548248963392e-01 1.4807076862507737e-01  4.9263099450359621e-01 1.0265340333749380e-01 1.7215268775583148e-01  4.9558364921578762e-01 9.5079688729787101e-02 1.8837207313654691e-01  4.9685648879881245e-01 9.2374637671707879e-02 1.9532515408087425e-01  4.9739290369967210e-01 1.0369771830687170e-01 1.9163616187329482e-01  5.1955397528796676e-01 2.1151371967285554e-01 2.1265172753468575e-01  6.3262554389650372e-01 4.2947038810619553e-01 4.7517451710732128e-01  6.5303281348333608e-01 4.4354352095297039e-01 5.3564943056445879e-01  7.2117066594712587e-01 5.5774268611216771e-01 5.7752024749938857e-01  7.3058874615623204e-01 7.4280179337055774e-01 3.2805207997417563e-01  7.2220251167135563e-01 7.5726278936107627e-01 2.9170599544404330e-01  7.1397164531184165e-01 7.5475437964283898e-01 2.7900777710703895e-01  6.8643912198434831e-01 7.4731307103057376e-01 2.3103269985926059e-01  6.5283228221409861e-01 7.2506392371316875e-01 1.8110627882609320e-01  5.7691345254073623e-01 5.7690179844418221e-01 1.1728614066326476e-01  5.4199144752726125e-01 4.6894091690395551e-01 9.5176205552476217e-02  5.3222599560746742e-01 4.3495874935207945e-01 8.9106675553673229e-02  5.2594027634321239e-01 4.1082672698219258e-01 8.6143564119219460e-02  5.1589615438771985e-01 3.6871422838932483e-01 8.2891018907176969e-02  5.1666172593586657e-01 3.7378344264794972e-01 8.2035933880524478e-02  5.0308408599962640e-01 3.0589973960820804e-01 8.2647533410826812e-02  4.8546608074808645e-01 1.8473371391626581e-01 9.7857370628156581e-02  4.8343293781337565e-01 1.7281567609279236e-01 9.7595946038251072e-02  4.9847263886353438e-01 2.7154237809498133e-01 8.9358684508657221e-02  4.9143704703133961e-01 1.3548402506392015e-01 1.4859874998940903e-01  5.0149269581762990e-01 1.0112098471754373e-01 2.0829598930356624e-01  5.0537848251138551e-01 9.1378743898146722e-02 2.2969011820657043e-01  5.1512978397298703e-01 7.9322144037660483e-02 2.7838286670552698e-01  5.1642096893672773e-01 7.8287306421119987e-02 2.8465855659087674e-01  5.1692011128619186e-01 7.8004592067524720e-02 2.8698143453484798e-01  5.1661622104846516e-01 7.8181996002872844e-02 2.8556036008190488e-01  5.1581858675148073e-01 7.8668052575807099e-02 2.8183058979911352e-01  5.1423450750013944e-01 7.9650949822815370e-02 2.7442438755474369e-01  5.1176063819074713e-01 8.0883161684817614e-02 2.6312449415554778e-01  5.0831358264673310e-01 8.2636574823630959e-02 2.4751104406219138e-01  5.0446747827622862e-01 8.3815614612911427e-02 2.3066943283870120e-01  5.0407286334689705e-01 8.3592721509636536e-02 2.2909537077143635e-01  4.9270250317410175e-01 9.9059144097208368e-02 1.7408349677163568e-01  4.8843424097602933e-01 1.0794426452981899e-01 1.5260113173465845e-01  4.8445006665275020e-01 1.3010189065443359e-01 1.2534074665777534e-01  4.8266129406257924e-01 1.4608081958540819e-01 1.0990637266751464e-01  4.8445099926945717e-01 1.5991650169322977e-01 1.0853854082777802e-01  5.0730703638983232e-01 3.1816426570250367e-01 8.8829672979443261e-02  5.3874966876026531e-01 4.6508607166243271e-01 8.7711881899084437e-02  5.3767785124872947e-01 4.6461759757654386e-01 8.4638432316916631e-02  5.3485926758817259e-01 4.3332235138219927e-01 1.0031660121219463e-01  5.2252449726998396e-01 3.6192465871565049e-01 1.1214029192874145e-01  5.0604432950332900e-01 2.6095339602252471e-01 1.2443297116832537e-01  4.8831751576125199e-01 1.2134655506615312e-01 1.4530428689076039e-01  4.8851695797989736e-01 1.5681743680902985e-01 1.2538241622052171e-01  5.8008021120788056e-01 5.0008771914276962e-01 2.0293949017335131e-01  7.1759514146826486e-01 6.5236713898032406e-01 4.3861323016484605e-01  7.4150695772772768e-01 6.4023762965743081e-01 5.0168327784944622e-01  7.4086407458761372e-01 5.8672999087277156e-01 5.7509556829854380e-01  7.2330741068182791e-01 4.6679470857997019e-01 6.9674160591153378e-01  6.3969248412016533e-01 1.9346099822990739e-01 7.3702630217094744e-01  6.7603136868804092e-01 2.0468267466259968e-01 8.2880311077816604e-01  7.1733981425859006e-01 2.8156836263301671e-01 8.6780744869849735e-01  7.8842226421481487e-01 5.1660729678186446e-01 7.2933032903075212e-01  7.9132508712176164e-01 5.3634440975116693e-01 7.0743334268206626e-01  7.9562171798488124e-01 5.7771113881862712e-01 6.5737426908898988e-01  7.4959472101732683e-01 3.6741338133809620e-01 8.4725046196916654e-01  7.2613041999711714e-01 2.9925079337629562e-01 8.6987102220020951e-01  6.8847612651331092e-01 2.3804638314830379e-01 8.4083060403452858e-01  7.2543584660527105e-01 3.6979024259003584e-01 8.0890605801070770e-01  7.1731304179539768e-01 4.4958086780237921e-01 7.0221011374266495e-01  6.2485442232107591e-01 5.9736099423828948e-01 2.5556828608253568e-01  4.9288242418958506e-01 2.0486747389413321e-01 1.1152756376552540e-01  4.8481558753288628e-01 1.5275682707439917e-01 1.1381346162803029e-01  4.8618624931384746e-01 1.2210145714731079e-01 1.3627196580090264e-01  4.9710848249861500e-01 9.6673461068613950e-02 1.9425871682041923e-01  5.0020705846068714e-01 1.2448491637570691e-01 1.9098480360804176e-01  5.7234260186922647e-01 3.4794046628061776e-01 3.2146635430016446e-01  6.8007599633148608e-01 4.7725919809317580e-01 5.7705271787056089e-01  7.4300356156472047e-01 6.7338959163108114e-01 4.5513882180237353e-01  6.1984044047939768e-01 6.7561917835545215e-01 1.4865435316409278e-01  5.0652316369423733e-01 3.2321728142279416e-01 8.2670650608644425e-02  4.8406328483771333e-01 1.6684213209494467e-01 1.0312208759002976e-01  5.3970407265549880e-01 4.6457456648663908e-01 9.1206736932281610e-02  7.0794503454777036e-01 4.4935621065343662e-01 6.8116041764296897e-01  5.3740885555550577e-01 4.2774037953113592e-01 1.1412936977069052e-01  4.8951149330133215e-01 1.1112892094250781e-01 1.5496591251562752e-01  5.9980153907550060e-01 3.9961604202052375e-01 3.8248757200490624e-01  4.8537240292708272e-01 1.2738385414929221e-01 1.3027847376923032e-01  6.0808763127560050e-01 6.5229954434883808e-01 1.3895791499440319e-01  7.3783136424674745e-01 6.3827224213131928e-01 4.9745613139440731e-01  6.9228380164607140e-01 5.0704606729137702e-01 5.7081664742961968e-01  5.4148914054464392e-01 4.0919099480103482e-01 1.4253943233426877e-01  5.1204066033686013e-01 2.9641179835371029e-01 1.2046591224164967e-01  4.9102074407305651e-01 1.4582988193118937e-01 1.4149879159475870e-01  6.9554891315747081e-01 4.0505187341455828e-01 7.0272928688028058e-01  6.8818904666633818e-01 4.6643914010747756e-01 6.1126915034246321e-01  6.5663491438831900e-01 1.7744192171802436e-01 7.9168469243130213e-01  4.8789390997851279e-01 1.3436541419300793e-01 1.3587600158736757e-01  5.3443830747431287e-01 3.8456136928823109e-01 1.3661227461614897e-01  6.6467039136394401e-01 2.6452067683145802e-01 7.5919860327810162e-01  5.0923918720533567e-01 2.8668813587431657e-01 1.1711159869364075e-01  6.8072305158823532e-01 3.4685419381767330e-01 7.2625616837645701e-01  6.8168155737588398e-01 4.2120664886734882e-01 6.4769954871271196e-01  6.7959528460078500e-01 2.9772178914877495e-01 7.7123918096650301e-01  5.2905682722044944e-01 4.2059701650088188e-01 8.9494326201499719e-02  5.4979008518398065e-01 4.9552565241549240e-01 9.9714153152804186e-02  5.3777074296506844e-01 4.5099784192828135e-01 9.5461112420092753e-02  5.6285382941023954e-01 5.3470667323235266e-01 1.0951904736299484e-01  5.4805487344831894e-01 4.8637905655658226e-01 1.0155770014946670e-01  5.7727113590121137e-01 5.7550438615363497e-01 1.1945134836319794e-01  5.9355434564562293e-01 6.1506774691957655e-01 1.3288968563396786e-01  6.1029660497058547e-01 6.4798166526472700e-01 1.5036246917158241e-01  6.2725433097394356e-01 6.7858405180522463e-01 1.6639619852033097e-01  6.4499533466331027e-01 6.9812118533298151e-01 1.9343212221999440e-01  7.6036687137993608e-01 4.0571027526357961e-01 8.2340227672143018e-01  5.3108242076362799e-01 3.7286470850440057e-01 1.3363152967756678e-01  6.2333943597392094e-01 6.6672549668358172e-01 1.6892109997421573e-01  6.5645063197362752e-01 7.0071034035274349e-01 2.2190709422245147e-01  4.8474066351704659e-01 1.4648378333007267e-01 1.1716879989549529e-01  6.0697997825648087e-01 6.4510665712997695e-01 1.4326558768869857e-01  6.3973334738466503e-01 6.9888848057157993e-01 1.7763068600372425e-01  6.5887005103580520e-01 2.4420649265493408e-01 7.5767676335672396e-01  6.5881932585095759e-01 2.1956444402024811e-01 7.7608350528571424e-01  5.0719701375506432e-01 2.7775054792271536e-01 1.1595757646241481e-01  5.0206273132742707e-01 8.8838861870517413e-02 2.1774607910530497e-01  6.1590157923550437e-01 6.6412429803418427e-01 1.4938535578612372e-01  6.4719403144239507e-01 7.1084671159169865e-01 1.8326425150459694e-01  6.7091867659845139e-01 7.2868378460990191e-01 2.2142958115988393e-01  6.0341760616628615e-01 5.5064272612281251e-01 2.3490082654601538e-01  6.6169967520302997e-01 6.0698848344382406e-01 3.5781256724267518e-01  6.2950380884380008e-01 6.6842605607765881e-01 1.8567353356952820e-01  6.5717432767781370e-01 6.8414264792473367e-01 2.4615899309266245e-01  6.8301474830727837e-01 7.0033110741365279e-01 2.9145667194357577e-01  6.7237420282788862e-01 6.6183525100886442e-01 3.1751819963362488e-01  4.9390452615557406e-01 2.1183194086085333e-01 1.1108613552193823e-01  4.9295984028048329e-01 2.0416616635863288e-01 1.1250486036023019e-01  4.8713452521042999e-01 1.6318516588093371e-01 1.1620720206892600e-01  7.8507050995736527e-01 5.0066641404923440e-01 7.4543421759370299e-01  6.7678796453363810e-01 7.3586554270834514e-01 2.2580428932571717e-01  5.5621003944553327e-01 5.1539547568825705e-01 1.0401976493593888e-01  6.4078680607753402e-01 1.8369862475404558e-01 7.4376539478139592e-01  6.4928724676311800e-01 1.8213486558194195e-01 7.7055730939407907e-01  6.4351001542970188e-01 2.1351509401844090e-01 7.3333234446619244e-01  6.3053827595939604e-01 5.8196710531574614e-01 2.9106154958868580e-01  5.6859380978885710e-01 4.8592953347383339e-01 1.7508765216513159e-01  5.2607945196646788e-01 4.0272894603425763e-01 9.2828941241751839e-02  5.3388862186932384e-01 4.3366259616390868e-01 9.5915523524944132e-02  5.1521912270612047e-01 3.5299888164728316e-01 9.1862032358677251e-02  5.2103660449711864e-01 3.7942908754482652e-01 9.2827308873022166e-02  5.0597004543280955e-01 3.0519447192770094e-01 9.2999338649897859e-02  5.0995505810383623e-01 3.2617684532453806e-01 9.2493456074981412e-02  5.2590479003530910e-01 4.0106793437540894e-01 9.3524748753295528e-02  5.1321359790062360e-01 3.4292766146450826e-01 9.2088381918184761e-02  5.2913220496629265e-01 4.1525819797646829e-01 9.3840745055349187e-02  5.1513615397212631e-01 3.5290268792146195e-01 9.1658678057624440e-02  5.0273002823052415e-01 2.8671533459126564e-01 9.4201773979114584e-02  5.0355380216253776e-01 2.9235372281237348e-01 9.3309412021129717e-02  4.9493566773719194e-01 2.3478804613482401e-01 1.0058665718290918e-01  4.9506866669641492e-01 2.3730205939224991e-01 9.9449703115936289e-02  5.1550974399052862e-01 3.5545398311175547e-01 9.1109158045013197e-02  5.0333383623283690e-01 2.5780195195736766e-01 1.1551991615855461e-01  4.8725253709544714e-01 1.5731769567924148e-01 1.2008790811634097e-01  4.8602976971632289e-01 1.3422978454374732e-01 1.2887770495554363e-01  4.8672215750786774e-01 1.2880018809499533e-01 1.3455848167193288e-01  4.8739165675156959e-01 1.1652528597693171e-01 1.4400460213345706e-01  4.8797999508117468e-01 1.1193178711729856e-01 1.4887895075072857e-01  4.8875573416610674e-01 1.0754547715661013e-01 1.5440364059440564e-01  4.8890265824037804e-01 1.0795101540395700e-01 1.5486267971641335e-01  4.8969973925019727e-01 1.1271835228957318e-01 1.5545546288976034e-01  4.9053725756157240e-01 1.2395824853361896e-01 1.5241252737784994e-01  4.8967852887388980e-01 1.0689169115162897e-01 1.5849236485252602e-01  4.9349304762718554e-01 1.4278762499834372e-01 1.5300175847022984e-01  4.9792655273736858e-01 1.7227595334716034e-01 1.5209378778914845e-01  6.7271504928240844e-01 5.7220477832999406e-01 4.3512455044869597e-01  4.9030939687883396e-01 1.8916206188357015e-01 1.1238867320507658e-01  6.4145239877418858e-01 6.4557234627780380e-01 2.5049075310018826e-01  6.4351030208461013e-01 6.0679850992924633e-01 3.0504869318884281e-01  6.7206004298127009e-01 6.1223325169473519e-01 3.8243537540019312e-01  6.3228864412018182e-01 5.4977658477298097e-01 3.3726190812662737e-01  6.0055860159170316e-01 5.2381618421514853e-01 2.5562927141787073e-01  6.5821197919271257e-01 5.5370547803489911e-01 4.1618925160811165e-01  4.9654441768082225e-01 9.5637991695786295e-02 1.9237043113183336e-01  6.0812882993441586e-01 4.8629654632140507e-01 3.2374624510680738e-01  6.2118015099640211e-01 6.7538953310472971e-01 1.5226910554895853e-01  6.9847484485545130e-01 7.3599363703998855e-01 2.7518004206470009e-01  7.0281321781583128e-01 7.4145866146742501e-01 2.7633562421961572e-01  4.9810059402063439e-01 2.5791743416021101e-01 9.6912428666439981e-02  5.0677905244768773e-01 2.1011200938613298e-01 1.6214179328924966e-01  4.9653430761108103e-01 1.1345318419557458e-01 1.8112457927057846e-01  6.8077856585145302e-01 2.7084833094434707e-01 7.9781808476241589e-01  4.9077293553628026e-01 1.3737942926451852e-01 1.4481329532260975e-01  6.7837113831836460e-01 7.3983781542896332e-01 2.2400413845289513e-01  6.9503055826263616e-01 6.0818998231952104e-01 4.4831275478447541e-01  6.8090170794491145e-01 5.4502623746272649e-01 4.9362776080717086e-01  4.9078919270174021e-01 2.1696693357692723e-01 9.7033897521519266e-02  4.9006619704476645e-01 1.8426439778716938e-01 1.1445814653406321e-01  6.4738376408238252e-01 5.7930071876362421e-01 3.4926743102809726e-01  4.8914055916312060e-01 1.1190685991251222e-01 1.5368922326301268e-01  6.3997590586426956e-01 1.6496144715761504e-01 7.5016236620857235e-01  6.5793642215891446e-01 1.8187647254095915e-01 7.9441196208301956e-01  7.4987658621977948e-01 3.6810707030529505e-01 8.4626209426654775e-01  6.7101594094290029e-01 5.5880041856154494e-01 4.4647902151703800e-01  6.2871547588601084e-01 1.5136260901097223e-01 7.1983503805025428e-01  4.8950589501103242e-01 1.4848605350446123e-01 1.3368556641688212e-01  6.6465799845167262e-01 1.9659575340389387e-01 8.0599437931367712e-01  6.7945078779071633e-01 2.1055408357889832e-01 8.3461265472326507e-01  6.7948158675497961e-01 2.0875340777675419e-01 8.3549758464038559e-01  7.2063359084293277e-01 3.7253991609727033e-01 7.9626653978049522e-01  5.4553175026973055e-01 4.7841500037678064e-01 9.9641562651454699e-02  5.4792160499779230e-01 4.8762194809120007e-01 1.0007864494988411e-01  5.4644542092755977e-01 4.8714466148068203e-01 9.5831940879247068e-02  6.4773188343308374e-01 4.5352070562364494e-01 5.0194273222956498e-01  5.0866986276690496e-01 8.3788503250011984e-02 2.4827203705782239e-01  7.0361205802292837e-01 2.5159009935112236e-01 8.6233113947091333e-01  7.1072177562837513e-01 2.6634187663350190e-01 8.6598698247267392e-01  4.8666004556026443e-01 1.2117614342285005e-01 1.3859187659229980e-01  5.3510898857756106e-01 4.4373869836914115e-01 9.2002838376847723e-02  5.4137580720113276e-01 4.6526805264963333e-01 9.6126261866367357e-02  4.8763577451663920e-01 1.7114409567853883e-01 1.1327529056944377e-01  4.9357224191003007e-01 1.1974150752590978e-01 1.6581379304522842e-01  7.1048268411052717e-01 7.5224783862091382e-01 2.7569826517578350e-01  4.9895654626992186e-01 1.6713826388049458e-01 1.5952286989025302e-01  6.9476840988610578e-01 5.5751646711389702e-01 5.1435659032301118e-01  6.8792728173709461e-01 4.6617595952534158e-01 6.1225861573637308e-01  4.8987768005803073e-01 1.0958973362826019e-01 1.5742973309971289e-01  5.0114873738856880e-01 2.7877989391229285e-01 9.3870602283872395e-02  7.8817060767589808e-01 5.2143384046524677e-01 7.2320912332520892e-01  7.1208461513002408e-01 4.4176404182075596e-01 7.0298290819110187e-01  6.0019315395347284e-01 5.4543100282045742e-01 2.2912654969836677e-01  5.9704950292314807e-01 6.1885699300893582e-01 1.4035310263350104e-01  5.2426458139960852e-01 3.9982525513057166e-01 8.8681655665918568e-02  5.1853942573899603e-01 2.6318043834995586e-01 1.7117593305891529e-01  5.0515854114284953e-01 2.1178825709410148e-01 1.5448923813390827e-01  5.1787043590824489e-01 2.4452088883101308e-01 1.8236026954461926e-01  4.8738553034248228e-01 1.4851146764849599e-01 1.2572588766087409e-01  5.8024880144511948e-01 5.2226830352141007e-01 1.8232628748830354e-01  7.0016476959938290e-01 2.4532364700768947e-01 8.5977482281866269e-01  7.2101709771