<?xml version="1.0"?>
<VTKFile type="UnstructuredGrid"  version="0.1"  >
<UnstructuredGrid>
<Piece  NumberOfPoints="600" NumberOfCells="1069">
<Points>
<DataArray  type="Float64"  NumberOfComponents="3"  format="ascii">239.8 188 0  250.2 180 0  258.2 172.4 0  257 169.4 0  259.9 157.4 0  258.7 150.3 0  261 143.5 0  251.7 144.4 0  250 138.7 0  247 138.1 0  245.2 130.8 0  247.3 126.4 0  242.7 118.6 0  231.2 107.7 0  226 102.4 0  226.5 93.90000000000001 0  224.5 91.19999999999999 0  224.5 84.09999999999999 0  234.5 73.80000000000001 0  228.4 68.90000000000001 0  230 70 0  233.4 68 0  222.7 61.5 0  220.6 45.5 0  223.4 49.40000000000001 0  224 47 0  221.8 43.09999999999999 0  221 38.40000000000001 0  219.5 38.5 0  219.4 41.69999999999999 0  217.1 36.90000000000001 0  209.7 36 0  209.5 31.69999999999999 0  205.1 29.90000000000001 0  201.5 30.40000000000001 0  199.2 38.69999999999999 0  201.8 41.40000000000001 0  194.8 53.80000000000001 0  196.1 57.69999999999999 0  193 59 0  191.4 66.09999999999999 0  193.5 66.5 0  194.1 64.40000000000001 0  195.6 64.69999999999999 0  195.4 72.40000000000001 0  199.5 77.30000000000001 0  197.7 86.90000000000001 0  200.6 87.5 0  201.5 91 0  198 94.80000000000001 0  198.6 100 0  197.3 105.4 0  198 109.5 0  197 112.7 0  198.3 116.1 0  201.3 122 0  207.2 121 0  208.1 126.7 0  205.6 127.9 0  209.1 134.9 0  210.9 144.4 0  210.1 147.9 0  213 148.4 0  215.4 149.3 0  215.1 152.8 0  219.9 159.7 0  220.3 163.2 0  218.7 164.9 0  219.9 166.7 0  221.9 169.7 0  220 170.3 0  224.9 174.7 0  229.8 177.4 0  229.7 181 0  228 172.9 0  239 178 0  240.4 180 0  239 181.5 0  241.2 185.9 0  242.95 187.99 0  241.113414658978 187.995830429654 0  242.142964269982 187.9925620181905 0  243.6619187087475 187.2054164851183 0  244.631513060971 186.1368566403919 0  245.9520480703466 184.6815359886801 0  247.7505449816197 182.6994683581873 0  252.8666666668011 177.466666666539 0  255.5333333336077 174.9333333330727 0  257.9666666666661 165.4000000000025 0  258.9333333333339 161.3999999999974 0  259.3000000000018 153.8500000000108 0  259.849999999995 146.9000000000149 0  256.350000000011 143.9499999999989 0  250.8500000000015 141.5500000000051 0  246.1000000000042 134.450000000017 0  245.0000000000049 122.5000000000082 0  239.8250000000041 115.875000000004 0  236.9500000000083 113.1500000000079 0  234.0750000000041 110.4250000000039 0  228.6000000000041 105.0500000000042 0  226.25 98.15000000000002 0  224.5 87.65000000001388 0  227.8333333333301 80.66666666667 0  231.1666666666644 77.23333333333571 0  232.2500000000014 71.90000000000116 0  230.8999999999995 68.45000000000009 0  225.5500000000108 65.20000000001409 0  222.9333333333329 57.46666666667507 0  223.1666666666663 53.43333333333877 0  218.2500000000016 39.30000000000339 0  213.4000000000277 36.45000000000337 0  200.3500000000025 34.54999999999097 0  199.4666666666726 45.53333333332282 0  197.1333333333385 49.66666666665756 0  193.5499999999978 61.6999999999891 0  193.3999999999962 69.24999999999406 0  197.4499999999954 74.84999999999454 0  198.6000000000007 82.09999999999631 0  199.7500000000014 92.8999999999985 0  198.2999999999997 97.39999999999726 0  197.950000000001 102.699999999996 0  199.7999999999944 119.049999999989 0  204.2499999999946 121.5000000000009 0  207.6499999999987 123.8499999999919 0  207.35 131.4 0  209.9999999999998 139.649999999999 0  217.4999999999938 156.249999999991 0  223.4 172.2 0  234.349999999995 179.5000000000016 0  243.6879031604435 137.0140197666175 0  200.5383884465266 74.3488835611292 0  236.0631303447202 117.0934887033495 0  255.2860706566257 162.4962097513293 0  210.288597171716 124.9641969758756 0  200.5494091764226 101.6938959209836 0  221.0463142825589 155.4583368622661 0  213.2458552033902 137.0182369603261 0  202.5715495252679 76.72215432732189 0  203.3954031521662 88.63888283314805 0  204.2685850489914 91.3771816532193 0  227.6002395557545 108.6285485308707 0  203.628067965887 73.80056467640915 0  205.5882193517793 76.19298591547215 0  219.3893731065793 59.36381842571261 0  222.6962970705901 100.2685345181304 0  206.2147206748961 89.23684943534887 0  224.5717795045128 68.90112930058935 0  207.1505150846513 91.97409496002633 0  206.6973804802006 73.20614062920998 0  209.0198262461606 75.84435446174592 0  204.6828826698789 70.78585325419728 0  244.5505030757118 140.1958289722003 0  241.2713205316759 139.2760911012237 0  242.0887623359319 142.523888210035 0  238.8201809392432 141.5810446831215 0  239.6254755922404 144.8663288044098 0  238.0282380951174 138.3361101328854 0  235.5650201404635 140.6403522599634 0  234.7868703265066 137.3765638391416 0  232.3671992655526 139.7040340002533 0  231.5735594060041 136.4371341666237 0  203.6025996895933 45.13245413868078 0  209.0094500142995 89.77916893533093 0  234.0048963149566 134.0619286436701 0  230.7388584519252 133.0932019642386 0  256.0202376970822 152.4353991158102 0  233.1239077827668 142.9168616681826 0  229.9476468053365 142.0041066209365 0  207.8316386186595 70.1760146256688 0  205.8080150778045 67.77328389450008 0  210.1255397865818 92.58553759086743 0  249.9530000513888 175.7831884132348 0  230.7520925362455 145.2114145624654 0  227.5614746466729 144.2879078440436 0  226.855634298717 141.1029513419209 0  221.109901317114 86.07738557802102 0  221.3898452401857 82.41394785245797 0  233.1906280944642 130.7538222264552 0  229.849944657733 129.8156996791429 0  227.4514186000422 132.1240250470279 0  226.5693510741891 128.7503487535618 0  208.0732626511005 94.86195720558288 0  211.0579654481564 95.54875779444082 0  209.0041892644107 97.86214677695602 0  216.7276956906574 41.503774594868 0  224.4517166451922 143.3327513982825 0  222.7890579510523 161.0597281586643 0  209.0698801997012 67.10609773523754 0  206.9141710660066 64.58868367949086 0  211.5265666272545 70.15591236789595 0  218.2872405225432 83.97244872861398 0  207.7311279855657 86.71297189445447 0  242.9081583239214 145.8040728889821 0  240.4621480942806 148.1601866910276 0  243.7562457682554 149.0907552716282 0  241.3145175595932 151.4726760652338 0  244.57940289053 152.3666461928266 0  242.1615185950008 154.7794567484269 0  238.8718789959482 153.837018554675 0  239.7122407256576 157.1523621063041 0  236.4289375384117 156.2070529629317 0  237.2412111497984 159.5248795948406 0  240.5638486223294 160.4901132255754 0  238.1023772270576 162.8725976094984 0  241.406699334305 163.8359650846702 0  238.9630278156374 166.2175426435888 0  234.7361516891476 161.8928266488476 0  213.124654294145 93.56046727196781 0  212.0434836741439 98.5447165103807 0  209.9504013355788 100.9044854564887 0  213.0958854424699 101.5871381629478 0  210.9302285957408 103.9580876602797 0  214.0010858928389 104.7096094485587 0  211.9141605791952 107.0615795921763 0  214.9890206858068 107.8102538193681 0  212.9269247290344 110.1901972673309 0  216.0786784436673 110.8721476340726 0  209.7617142319936 109.4041944495815 0  213.932211035267 113.2627867337288 0  217.0813395790477 113.941453344218 0  218.441750941724 80.63655841437071 0  242.2412500877879 167.1781012200828 0  229.2280100589433 126.5393356137107 0  225.9203624138538 125.4446005931909 0  223.3571983269889 127.7265579015054 0  222.6136526124249 124.535547281476 0  225.3056527306165 122.1016033222114 0  220.3254947810712 126.7409252226328 0  201.0777098578984 116.3274181811247 0  219.7857338015156 123.3740225787907 0  228.3312248450329 147.5116593523427 0  223.7608055035202 140.2236832285434 0  221.3299816979287 142.3937311365609 0  245.4512147769152 155.7068319139237 0  214.9140854911084 116.3016229600955 0  241.4261562479406 177.9745543740275 0  202.8157779574545 68.56000166221941 0  240.0703975438099 175.788326095019 0  222.1092806876692 145.4935485219417 0  220.9446699547174 129.9892194059113 0  217.7131509102484 129.0121441451285 0  231.966766611991 173.6290727753235 0  244.7035101352062 164.8150950666352 0  215.4589412711449 82.35047797613059 0  218.5358717759109 108.3057574313637 0  210.0910095413371 63.89870618133642 0  207.8879031726656 61.27101234314142 0  219.5945508510063 49.26517889117938 0  204.4640092132492 79.16637174968085 0  219.054165325738 63.24726086273807 0  245.5364828646638 168.1932520030346 0  204.1722248369768 62.21708558088665 0  205.6821920907016 58.50393459316535 0  209.6155639374877 57.86856426712311 0  196.5553895895766 69.81481204083099 0  235.6123608690412 152.8874163252039 0  233.2157615582107 155.2532908181879 0  240.6837858645011 122.4172544901715 0  210.8141135626509 127.8682271622992 0  245.3812170314571 182.2522052029404 0  206.9456715292139 54.99559933887414 0  210.5075513436263 54.0697256538542 0  207.9169085133073 103.1765167571325 0  223.2431750051092 164.070583057325 0  225.7483443677002 162.1151723759482 0  206.0378951001477 96.94148998994152 0  242.6796154699829 175.6597339900036 0  214.6838055972238 146.7252062992904 0  211.9990465678071 115.5576487680909 0  221.4613603554043 78.78973924681317 0  218.3291154698718 77.0769598533563 0  200.3358005877804 107.1120377748188 0  247.4072167499741 149.4171847419639 0  211.6397508657857 39.55684201930068 0  226.8243927196049 72.17619845696734 0  215.354291780634 85.55308818793476 0  236.5600255652378 131.6759521500912 0  226.0129792461303 165.2837912620818 0  218.060680211082 117.0067370946569 0  220.2726382852709 114.6051380114157 0  212.8793579154693 118.3711453694285 0  215.022609143906 99.35520341734289 0  203.0459334752391 85.71272568041367 0  202.8915272398735 55.67723839797077 0  220.5465456567309 139.1747891305704 0  239.6921265383864 169.3260213165692 0  236.6712881821608 168.5826958099534 0  218.0125893802946 141.5012621699478 0  201.3193403438535 110.3399099823547 0  203.3799271438462 107.9393487975089 0  248.1978655115356 165.7601936670729 0  248.8804221900089 169.2105116441819 0  237.1867529048816 147.1869371163321 0  236.7369473929319 176.2832209442509 0  247.3010859001464 162.3677476585113 0  204.3727171343656 110.8209535355564 0  235.7766571132668 128.3537547116865 0  217.8932394506906 150
[...]
<PointData  Vectors="f_12"> 
<DataArray  type="Float64"  Name="f_12"  NumberOfComponents="3" format="ascii">6.3134942317959930e-01 7.2123519218466958e-01 1.2747634340530409e-01  6.3028739935447664e-01 7.1894466213392538e-01 1.2730332916872053e-01  6.1885685470352381e-01 6.9908506863806463e-01 1.1845897698278046e-01  6.1808942434617287e-01 6.9768543946216344e-01 1.1789023053895882e-01  6.1709940547349273e-01 6.9500821249468048e-01 1.1875213854609884e-01  6.4438921191301912e-01 7.2292251023327270e-01 1.6204392229320119e-01  6.4208582231518785e-01 7.2680477667296750e-01 1.5161744160619345e-01  7.0504443591250976e-01 5.7866034963069546e-01 5.0932736510377785e-01  6.7226557459626879e-01 2.8834338533494724e-01 7.6050801044140370e-01  6.2403716972862999e-01 1.9595580924364683e-01 6.7234842290450259e-01  5.3401956666461969e-01 9.8620549695214554e-02 3.5879525115010080e-01  5.2976885604005519e-01 8.4866321618730714e-02 3.4695671374316739e-01  5.0325669358901626e-01 1.1516550360516756e-01 2.1102757568032970e-01  5.0748703017661434e-01 2.9386484491129428e-01 1.0744563000688777e-01  5.5746420141989617e-01 4.6559231147687274e-01 1.5505467202586415e-01  6.3731824345917365e-01 5.7310651983205751e-01 3.2875729871542536e-01  6.5813891869577978e-01 5.6666970597651301e-01 4.0269688156838929e-01  6.4308346810318562e-01 5.6609555361631003e-01 3.5483792285205207e-01  4.9623141347234717e-01 2.3476016800752661e-01 1.0631160174417963e-01  4.9476624716692275e-01 2.0469984813427869e-01 1.2054864518788351e-01  4.9348006934580346e-01 2.0910454652632549e-01 1.1278656055877923e-01  4.8575738278917990e-01 1.7773561538492558e-01 1.0414472804570277e-01  5.3959850565955059e-01 1.3013505743428380e-01 3.5593637394803385e-01  7.9490014511811535e-01 5.9538757147987098e-01 6.3330572609505975e-01  7.7028864897353155e-01 4.6672908166052879e-01 7.7316702208661614e-01  7.9756738450678522e-01 6.1050878202872072e-01 6.1399491743564272e-01  7.9788952423996440e-01 6.1905789580888526e-01 6.0224170144709366e-01  7.9993733216595897e-01 6.4131863327258332e-01 5.7216450659380591e-01  7.9979584433282280e-01 6.4014452483791140e-01 5.7370521775753014e-01  7.9883289588802986e-01 6.3138829922906792e-01 5.8545815390635392e-01  7.9929643773147063e-01 6.5497214601090081e-01 5.5152711739481386e-01  7.9812902488621962e-01 6.7643048311391873e-01 5.1848171862729409e-01  7.9729794024633938e-01 6.8706294620439623e-01 5.0163154971629631e-01  7.9703633451441758e-01 6.9020929816309318e-01 4.9659478865076040e-01  7.9699095670394349e-01 6.9087287339266090e-01 4.9554118378801604e-01  7.9788040751241762e-01 6.8178380419567641e-01 5.1017495286191739e-01  7.9874898299723684e-01 6.6842513943742887e-01 5.3111082953552258e-01  7.7033336934078622e-01 4.6552326309149100e-01 7.7476848420849587e-01  7.1028833610774522e-01 2.9087716626330307e-01 8.4903552035014829e-01  6.7161582149667709e-01 2.0858119558375113e-01 8.2023450350579541e-01  5.3012132563596848e-01 1.0452259660832011e-01 3.3746517596309766e-01  5.3249898718089694e-01 1.1271183333554853e-01 3.4161341764842545e-01  6.0195364831253684e-01 1.4236338127056103e-01 6.1502409135228053e-01  5.7756786575090635e-01 1.3311643634972789e-01 5.1843786174617523e-01  5.2676777980251432e-01 1.7717343297992252e-01 2.7323592136952163e-01  6.0200718833272626e-01 4.1258737934940776e-01 3.8007429732783660e-01  7.1432976749368005e-01 5.3125852668223084e-01 5.9800970979031831e-01  7.1228686384709106e-01 4.9549714335211831e-01 6.3746494683673061e-01  7.1431298914981745e-01 4.0102510334703034e-01 7.5311543173527007e-01  7.3172381115166951e-01 3.9602255265831143e-01 7.9389883046095866e-01  7.2931455693689407e-01 3.7898383481507092e-01 8.0748617369324471e-01  7.4463870384603625e-01 4.2290502288825077e-01 7.8715206734917720e-01  7.5410324496367875e-01 4.6304173509627916e-01 7.5550153731298630e-01  7.6566114148561826e-01 5.1117912658265396e-01 7.1259569459693750e-01  7.6875347548686257e-01 5.2860187879547393e-01 6.9461207755230836e-01  7.6463675565401734e-01 5.2158875382506231e-01 6.9814567780186387e-01  7.2051226309666738e-01 4.2314928191320922e-01 7.4074871310023327e-01  7.2094770932805263e-01 6.1052949782965249e-01 5.0332640427186071e-01  7.2129677805699111e-01 6.5138690464530080e-01 4.4719094840562368e-01  6.6373931002100772e-01 6.8487243391896957e-01 2.6307233920915907e-01  5.5540249378122830e-01 4.9694444245804170e-01 1.1955454247616523e-01  5.4281877311356586e-01 4.5589540544512269e-01 1.1029349403063279e-01  5.4179772751586353e-01 4.4142563236782217e-01 1.1894762165319975e-01  5.3441306289308887e-01 3.8163274451443829e-01 1.4201727085035062e-01  5.2726576564819649e-01 3.0732687128911818e-01 1.7503778047651264e-01  5.8743275840389853e-01 2.2680239007504341e-01 4.9708389285289678e-01  6.7982662011306849e-01 3.6186814614658863e-01 7.0028859070006633e-01  7.1145213499064919e-01 4.4359731297731758e-01 6.9645355083344751e-01  7.2758801761137770e-01 5.1462741177084848e-01 6.4381948185309701e-01  7.4238747157924256e-01 6.3012949760897985e-01 5.1572654917522598e-01  7.4656460614287046e-01 6.2778705404023782e-01 5.2845298097416249e-01  7.3241048521258489e-01 7.4540630809897179e-01 3.2785686440147771e-01  6.7655836562470195e-01 7.7267109102963805e-01 1.7507569735730172e-01  6.7074030843103627e-01 7.7079965839617048e-01 1.6458155526453400e-01  7.1707158840358887e-01 7.5493365083313035e-01 2.8453385019095667e-01  6.5302180861328929e-01 7.5000463871002754e-01 1.4864164412375078e-01  6.3990455534653179e-01 7.3335704132479429e-01 1.3569004468826340e-01  6.3653352532341190e-01 7.2875697869194855e-01 1.3245025613579736e-01  6.3207019236320394e-01 7.2229595933180413e-01 1.2818267337793590e-01  6.3166449366378929e-01 7.2169241929164862e-01 1.2779010440459335e-01  6.3155424197618037e-01 7.2153527824014896e-01 1.2767812526408903e-01  6.3162420833798771e-01 7.2163579469073669e-01 1.2774860215333925e-01  6.3180589195273928e-01 7.2189460843157516e-01 1.2793317844950075e-01  6.3214848765273524e-01 7.2237912666724691e-01 1.2828622856665739e-01  6.3244688141234451e-01 7.2275986405052328e-01 1.2864419342608910e-01  6.3238608599027257e-01 7.2250625387851619e-01 1.2878394020452538e-01  6.2645212379044757e-01 7.1240324381706543e-01 1.2442484201137742e-01  6.2177800207958867e-01 7.0427490886056865e-01 1.2078004439050284e-01  6.1512833561752012e-01 6.9228198859349055e-01 1.1562974581864882e-01  6.1417808433834353e-01 6.9034207772818879e-01 1.1527501703405825e-01  6.2877115780347292e-01 7.0989295263489904e-01 1.3474789545006144e-01  6.4588666297234920e-01 7.2666321024258695e-01 1.6179022608555046e-01  6.6081931232448088e-01 7.2086738237807768e-01 2.0713909402537861e-01  6.9546956775136093e-01 3.8817460352728117e-01 7.2188728088206588e-01  5.5975605247856774e-01 1.1865332315839219e-01 4.6325886741541217e-01  5.1826413519439651e-01 9.4259796280915270e-02 2.8854696475660546e-01  4.9603593847835148e-01 1.4714699101442777e-01 1.6207245678321713e-01  4.9437484826483863e-01 1.8810548737411492e-01 1.2982458445139941e-01  4.9788382961833105e-01 2.3516395684107799e-01 1.1229928810846708e-01  5.2420065186243914e-01 3.6508008383718693e-01 1.1613182682972886e-01  6.0356929563996531e-01 5.5189588526634736e-01 2.3779224065850327e-01  6.6812279321515811e-01 5.6922304075714092e-01 4.2953832741573866e-01  5.7050011395536260e-01 4.6187495193685624e-01 2.0818008882235811e-01  5.1393814637248014e-01 2.9927645858493124e-01 1.2744185216174350e-01  4.9489958096495490e-01 2.2693508704879375e-01 1.0666765072445715e-01  4.9041597328439307e-01 1.9674641533257844e-01 1.0930941232185691e-01  5.0118130903896074e-01 1.6358470386737603e-01 1.7219632691323225e-01  6.2376816731076479e-01 1.6554849647593900e-01 6.8282586811381085e-01  7.1864197400809804e-01 3.1440973833354113e-01 8.4589183874698159e-01  7.9927890300296434e-01 6.4748085639782549e-01 5.6251256126098481e-01  7.9897287556396424e-01 6.6265022722674116e-01 5.3986492137128173e-01  7.9730691887524840e-01 6.8780627144395134e-01 5.0051017828063993e-01  7.9878372353943572e-01 6.3194223260125781e-01 5.8468804197674351e-01  7.9300576161958680e-01 5.7320543036284488e-01 6.6263815348709731e-01  6.4403428229924509e-01 1.7678289993351523e-01 7.5029158438974974e-01  5.2728364213036161e-01 1.2001368878548961e-01 3.1461386332414715e-01  5.4735968917598177e-01 2.7171030738134178e-01 2.8812645879681748e-01  6.8520229587213033e-01 5.2311443754187925e-01 5.3636572739537447e-01  7.2448127290189124e-01 3.9003686219975192e-01 7.8617577947376616e-01  7.3165152159819336e-01 3.8918007557893514e-01 8.0139559117234960e-01  7.3569387245744422e-01 3.9535386621100477e-01 8.0165711356622016e-01  7.6702927293199064e-01 5.2721536161878590e-01 6.9405649795101187e-01  7.5017634802105659e-01 4.7933376225482227e-01 7.2876800044880274e-01  7.2127534329914644e-01 5.0196961213842628e-01 6.4794558944702674e-01  7.0508442963179230e-01 6.7661575602264101e-01 3.7576610895167784e-01  6.0195737087340717e-01 6.1228813683461614e-01 1.6524793007690403e-01  5.3685122747387171e-01 2.4713784273280390e-01 2.6406353861142062e-01  7.3707406900544825e-01 7.1701846732843866e-01 3.7863434919234507e-01  6.6722590773180046e-01 7.6719473874740574e-01 1.6129428317661915e-01  5.7204888661464914e-01 1.3908016861249847e-01 5.0241390014028176e-01  5.6087042542464671e-01 3.1984603338023332e-01 3.0356302657866002e-01  5.0012378839054739e-01 1.9083948585305380e-01 1.5006352791138403e-01  6.1969785232848185e-01 6.9913517305731243e-01 1.2113935824476188e-01  7.1909608285046400e-01 5.4697145278441373e-01 5.8529928659916564e-01  7.1987734643652268e-01 3.5736738951617969e-01 8.0959222190871138e-01  5.4384068314535239e-01 2.2685264800806976e-01 3.1118897192157696e-01  6.2328968109563510e-01 6.4507258896027708e-01 1.9541975468338790e-01  6.0212120223741028e-01 4.2426252103907364e-01 3.6882725280124340e-01  7.0920221712940823e-01 4.3751261952114923e-01 7.0023290230891266e-01  7.0058814507853806e-01 3.6875286054456741e-01 7.5600962098789759e-01  5.2217747788015278e-01 3.5012829838232273e-01 1.2004438534900563e-01  5.6479731650297427e-01 3.4676393658886379e-01 2.9543705179321872e-01  6.0121092414189059e-01 4.4119618727155091e-01 3.4754490412936334e-01  5.8352924669199446e-01 1.3633857912351977e-01 5.4215891318243103e-01  5.8778020946273979e-01 5.1443540107621777e-01 2.2059604767008623e-01  6.9463367500803774e-01 3.9117253649173783e-01 7.1746281171130766e-01  5.0141459369300367e-01 2.0517696826006337e-01 1.4595802505345437e-01  6.7530368007339814e-01 3.2173287857995808e-01 7.3653925912973706e-01  5.6352496444849820e-01 3.6075674860083579e-01 2.7730225801529867e-01  5.9975391952339041e-01 4.5997495250158288e-01 3.2265127016677098e-01  5.3894167937631665e-01 2.5912385646522929e-01 2.6251911842971448e-01  6.1663935487591426e-01 1.9023478162565233e-01 6.5016447401270505e-01  5.6639921202659371e-01 1.5269053601817092e-01 4.6759848607319449e-01  6.0598989088368915e-01 1.8974699954738125e-01 6.0787153446376596e-01  5.5871020698571727e-01 1.6708347579928423e-01 4.2341807895737787e-01  5.9493678455350552e-01 1.8905641467444975e-01 5.6306846711776626e-01  5.3766004354658792e-01 1.7275383196916341e-01 3.2530965264335049e-01  5.3628033444004652e-01 2.0273756448289287e-01 2.9708094106065919e-01  5.3129069716330513e-01 2.3995709835777335e-01 2.4585111382555036e-01  5.3525887618802592e-01 2.8018132268741852e-01 2.3044824817455126e-01  5.4216561903484628e-01 3.4025977812266234e-01 2.0815564871456968e-01  7.9854832739460258e-01 6.4107407198634403e-01 5.7131035601923730e-01  6.7756585363777611e-01 3.6058187024260263e-01 7.0433379222713255e-01  5.3326025701782365e-01 2.8281281594027735e-01 2.1930250201655074e-01  5.5352460881746846e-01 3.9873109273570162e-01 2.0191898012456827e-01  6.4519725564150920e-01 7.2133018085405454e-01 1.6545105702670820e-01  5.3595407137020712e-01 2.2768845636666368e-01 2.7628580834356165e-01  5.3736876528754984e-01 3.0711842109014093e-01 2.1690083672846558e-01  5.3692550706988795e-01 2.6492020210365108e-01 2.4892849813419765e-01  5.3006038654087784e-01 1.8627956564342757e-01 2.8031946514034434e-01  6.5226823702915560e-01 3.0474639756539773e-01 6.8169827799000104e-01  6.2927317346176204e-01 7.1700693476799282e-01 1.2681160066798738e-01  5.3564994921174414e-01 2.4256838339861997e-01 2.6308794257437806e-01  5.3696506771849395e-01 3.1842014902643728e-01 2.0569947554381773e-01  5.4786527788100525e-01 3.9455769385541600e-01 1.8346104744475319e-01  6.6878056500294014e-01 5.6027091531672590e-01 4.4269128738906122e-01  6.4268188466108378e-01 5.6051983380907033e-01 3.5981347174066924e-01  5.3852927209090651e-01 3.2337783769788259e-01 2.0713947552327877e-01  5.6615789682483220e-01 4.4647194878504964e-01 2.0669760798264666e-01  5.8213660583160198e-01 5.1067134865523678e-01 2.0362650205912533e-01  6.0044059508594538e-01 5.4939674229846103e-01 2.2868021809656416e-01  6.4770383494506034e-01 2.6775319794556063e-01 6.9983437618193911e-01  6.2577018255275640e-01 2.7771718724298972e-01 6.1286123588533881e-01  6.2060057555678161e-01 2.4120653176036974e-01 6.2525146928301123e-01  7.9890740675169558e-01 6.3995548297752436e-01 5.7314720529084529e-01  5.4520886782447764e-01 3.9645424040183153e-01 1.7126963411790957e-01  6.3421529332998439e-01 2.7106618152067213e-01 6.4163634614961984e-01  5.2752741700745143e-01 1.8516959649044487e-01 2.6998009711595716e-01  5.4288468589086547e-01 1.4210189131780229e-01 3.6642327640171163e-01  5.3479914753333280e-01 2.7906415257771777e-01 2.2863422049161528e-01  6.6672559785270913e-01 5.4762398391710276e-01 4.5174348233891837e-01  6.9323134520517615e-01 4.3776618597437555e-01 6.6138643254566765e-01  6.5501026509844307e-01 2.7600280333595045e-01 7.1543889582967779e-01  6.4515647596718506e-01 2.6187115873222344e-01 6.9470883231987401e-01  6.9832297604425797e-01 4.1648437056529775e-01 6.9834986771796748e-01  6.9383904508170680e-01 3.9847495910335690e-01 7.0673137601572100e-01  7.1760251475119152e-01 5.6505245644161428e-01 5.5849530603434150e-01  7.1921761812345608e-01 5.5610176231400266e-01 5.7437325996952704e-01  6.9094738580739279e-01 3.8675711116337502e-01 7.1173330903587739e-01  7.2061129341631636e-01 5.5178135784930260e-01 5.8313855369851741e-01  6.9103665492677413e-01 3.8615851790163980e-01 7.1229107622288468e-01  7.2257407691521347e-01 5.5734598369173061e-01 5.7980085933193481e-01  7.1940313339862394e-01 6.7768912566841022e-01 4.0391674598801569e-01  7.2107073447049297e-01 6.8625931856789590e-01 3.9478173942099032e-01  6.9927881349521681e-01 7.3997316487842135e-01 2.7086489692687393e-01  7.0026885131682015e-01 7.4666990843199987e-01 2.6328192908082315e-01  7.2506979953781825e-01 5.7418555286107864e-01 5.6207944769760299e-01  6.3864706769088964e-01 3.3167684952586945e-01 6.0763651488445680e-01  6.0534965848469513e-01 2.8452041967182912e-01 5.2646690081059067e-01  6.0125995404094068e-01 2.4058410097398661e-01 5.4945767671541546e-01  5.9303809743130842e-01 3.1254944544761243e-01 4.4933995754546296e-01  5.9196140715907897e-01 2.5618533889608458e-01 4.9714316574067752e-01  5.8799621280166281e-01 3.3801937756144979e-01 4.0359166727045731e-01  5.9189306213586190e-01 2.7441879037100375e-01 4.8025611228499132e-01  5.9085374287798531e-01 3.5868875171932491e-01 3.9467650793119630e-01  6.0103463179588124e-01 2.9334838244658001e-01 4.9992524826418677e-01  6.0128261946650163e-01 3.7835783235961545e-01 4.1625701402377979e-01  6.0977585935865219e-01 2.3755612955229932e-01 5.8564922581247592e-01  6.1867757187757322e-01 3.1830162248255539e-01 5.4512833895008672e-01  6.1921853038461394e-01 4.0222571828652898e-01 4.5998034845699548e-01  6.3906899082078927e-01 5.4963265181889043e-01 3.6106282399032530e-01  6.7546439897551658e-01 7.5589616795560277e-01 1.9528994086353235e-01  5.7374894836030899e-01 4.6695032442894185e-01 2.1561145104397902e-01  6.1067050063352801e-01 5.5575868965484532e-01 2.5734196946666832e-01  6.3586157232743012e-01 6.1052926418310960e-01 2.7693237236059298e-01  6.4662695429313022e-01 5.9239605735384715e-01 3.3324460158642066e-01  6.1104842032210416e-01 5.3862447193305429e-01 2.7771625710227882e-01  6.6652838538379366e-01 6.2445211338222928e-01 3.5115620429173017e-01  7.6028723973316592e-01 5.0115456115962442e-01 7.1731477249773090e-01  6.7015993173166521e-01 5.7132831318740540e-01 4.3070556123057407e-01  5.3485528643599645e-01 2.4881756233156543e-01 2.5460054690988243e-01  5.6180217183329029e-01 4.7340406307329219e-01 1.6457968969698367e-01  5.5584397650092721e-01 4.6383106334745094e-01 1.5110307137344892e-01  7.1212745105645925e-01 6.7705622709467161e-01 3.8963809196136873e-01  6.4275424698235140e-01 3.6061524818611801e-01 5.9005660920411629e-01  6.4398645322701398e-01 7.3875501789825682e-01 1.3976015859049987e-01  5.3165339154619018e-01 1.8431818935687452e-01 2.8864850606722575e-01  6.5321098221476748e-01 7.4965192011362569e-01 1.4967770547831091e-01  5.4054411968316274e-01 3.8623772176535676e-01 1.6189071531933999e-01  6.4751765265408245e-01 6.4255232080484015e-01 2.7267629712148261e-01  6.7694120609690756e-01 6.5249522025198026e-01 3.4188740454220640e-01  6.9171265366427026e-01 7.6986885979071462e-01 2.1166977737725992e-01  6.7197343624768469e-01 7.5027766875491542e-01 1.9475430692894055e-01  6.6443394042206216e-01 5.3802548556726848e-01 4.5640238273409656e-01  5.8447138146846822e-01 4.4248210877949884e-01 2.8350483187524994e-01  5.4183638637738973e-01 1.4003582878453122e-01 3.6285867656177784e-01  5.8400660200401511e-01 1.4015563104501891e-01 5.4326528738366342e-01  7.7554474868621592e-01 4.9502714038017953e-01 7.4286683117221741e-01  6.4195585306682668e-01 4.9059635932165135e-01 4.4037278074425795e-01  5.2931642087392650e-01 1.3232483588042471e-01 3.1231729619096243e-01  6.5301075561176047e-01 7.4405752375215894e-01 1.5647119564608225e-01  5.8340167867439885e-01 1.3921027581880521e-01 5.4206628852811900e-01  6.5412744465422945e-01 2.0104893743085908e-01 7.6523566600625026e-01  6.4876781857414834e-01 1.9291019383223446e-01 7.5443190925786208e-01  5.2772494213890853e-01 1.5052589393492810e-01 2.9566667939635388e-01  6.3488647268431886e-01 2.4893025724998380e-01 6.6905304700962132e-01  6.3691396634859498e-01 2.5367493786118611e-01 6.7206466533416831e-01  5.0970319378216544e-01 1.2276744574585702e-01 2.3361492592210648e-01  7.1407849320907057e-01 6.2923500481907457e-01 4.6267517559142890e-01  6.3320192156728816e-01 7.2380544316538342e-01 1.2943977743911272e-01  7.2529568458157534e-01 3.3541470488437763e-01 8.3925334772162252e-01  7.2879428084209785e-01 3.4462845495100192e-01 8.3627112200869669e-01  6.1260389505055379e-01 2.2185931126882588e-01 6.0898349258419970e-01  6.9826078736326913e-01 4.0986167432071413e-01 7.0228626998347055e-01  6.7478049226076309e-01 3.4352494734972033e-01 7.0889289219801310e-01  6.5638388838674200e-01 2.6008341959231157e-01 7.3337569849563822e-01  6.4529456408664287e-01 7.4006788544468305e-01 1.4159649386824058e-01  5.4281962920058235e-01 4.3917594331404963e-01 1.2457304077934669e-01  6.4431994103209478e-01 3.0121728010930782e-01 6.5539722180413806e-01  6.0142242757831221e-01 5.1302915118978387e-01 2.7067615199122985e-01  5.9689966709434505e-01 4.9551296270581791e-01 2.7285426813672820e-01  7.3328982998634951e-01 3.9809286876631272e-01 7.9259409946542903e-01  7.1514837602714376e-01 5.7537498732709746e-01 5.3910037170898661e-01  7.9888249499889863e-01 6.6110228777731916e-01 5.4209598796895553e-01  5.0643708250008257e-01 2.5690741301567216e-01 1.2968928829121329e-01  6.7810312261252925e-01 4.9993146763967800e-01 5.4533037290066833e-01  5.2408037953574704e-01 2.1423209992301429e-01 2.3377988770204178e-01  7.2222718179198131e-01 5.1623987296898788e-01 6.3192103991972337e-01  6.4094596226658540e-01 4.4321686031861940e-01 4.9282779339081906e-01  6.1113032880379725e-01 4.6941793827455552e-01 3.5570677620308783e-01  6.6874655998871524e-01 3.5960355040092745e-01 6.7650856944526716e-01  6.0301731771079259e-01 3.6974381458796229e-01 4.3262578096887111e-01  7.0443502387565093e-01 4.9303242932466768e-01 6.2178977500828703e-01  7.3123104848957032e-01 3.4867071265831240e-01 8.3931040910817678e-01  5.7883425169