<?xml version="1.0"?>
<VTKFile type="UnstructuredGrid"  version="0.1"  >
<UnstructuredGrid>
<Piece  NumberOfPoints="600" NumberOfCells="1069">
<Points>
<DataArray  type="Float64"  NumberOfComponents="3"  format="ascii">239.8 188 0  250.2 180 0  258.2 172.4 0  257 169.4 0  259.9 157.4 0  258.7 150.3 0  261 143.5 0  251.7 144.4 0  250 138.7 0  247 138.1 0  245.2 130.8 0  247.3 126.4 0  242.7 118.6 0  231.2 107.7 0  226 102.4 0  226.5 93.90000000000001 0  224.5 91.19999999999999 0  224.5 84.09999999999999 0  234.5 73.80000000000001 0  228.4 68.90000000000001 0  230 70 0  233.4 68 0  222.7 61.5 0  220.6 45.5 0  223.4 49.40000000000001 0  224 47 0  221.8 43.09999999999999 0  221 38.40000000000001 0  219.5 38.5 0  219.4 41.69999999999999 0  217.1 36.90000000000001 0  209.7 36 0  209.5 31.69999999999999 0  205.1 29.90000000000001 0  201.5 30.40000000000001 0  199.2 38.69999999999999 0  201.8 41.40000000000001 0  194.8 53.80000000000001 0  196.1 57.69999999999999 0  193 59 0  191.4 66.09999999999999 0  193.5 66.5 0  194.1 64.40000000000001 0  195.6 64.69999999999999 0  195.4 72.40000000000001 0  199.5 77.30000000000001 0  197.7 86.90000000000001 0  200.6 87.5 0  201.5 91 0  198 94.80000000000001 0  198.6 100 0  197.3 105.4 0  198 109.5 0  197 112.7 0  198.3 116.1 0  201.3 122 0  207.2 121 0  208.1 126.7 0  205.6 127.9 0  209.1 134.9 0  210.9 144.4 0  210.1 147.9 0  213 148.4 0  215.4 149.3 0  215.1 152.8 0  219.9 159.7 0  220.3 163.2 0  218.7 164.9 0  219.9 166.7 0  221.9 169.7 0  220 170.3 0  224.9 174.7 0  229.8 177.4 0  229.7 181 0  228 172.9 0  239 178 0  240.4 180 0  239 181.5 0  241.2 185.9 0  242.95 187.99 0  241.113414658978 187.995830429654 0  242.142964269982 187.9925620181905 0  243.6619187087475 187.2054164851183 0  244.631513060971 186.1368566403919 0  245.9520480703466 184.6815359886801 0  247.7505449816197 182.6994683581873 0  252.8666666668011 177.466666666539 0  255.5333333336077 174.9333333330727 0  257.9666666666661 165.4000000000025 0  258.9333333333339 161.3999999999974 0  259.3000000000018 153.8500000000108 0  259.849999999995 146.9000000000149 0  256.350000000011 143.9499999999989 0  250.8500000000015 141.5500000000051 0  246.1000000000042 134.450000000017 0  245.0000000000049 122.5000000000082 0  239.8250000000041 115.875000000004 0  236.9500000000083 113.1500000000079 0  234.0750000000041 110.4250000000039 0  228.6000000000041 105.0500000000042 0  226.25 98.15000000000002 0  224.5 87.65000000001388 0  227.8333333333301 80.66666666667 0  231.1666666666644 77.23333333333571 0  232.2500000000014 71.90000000000116 0  230.8999999999995 68.45000000000009 0  225.5500000000108 65.20000000001409 0  222.9333333333329 57.46666666667507 0  223.1666666666663 53.43333333333877 0  218.2500000000016 39.30000000000339 0  213.4000000000277 36.45000000000337 0  200.3500000000025 34.54999999999097 0  199.4666666666726 45.53333333332282 0  197.1333333333385 49.66666666665756 0  193.5499999999978 61.6999999999891 0  193.3999999999962 69.24999999999406 0  197.4499999999954 74.84999999999454 0  198.6000000000007 82.09999999999631 0  199.7500000000014 92.8999999999985 0  198.2999999999997 97.39999999999726 0  197.950000000001 102.699999999996 0  199.7999999999944 119.049999999989 0  204.2499999999946 121.5000000000009 0  207.6499999999987 123.8499999999919 0  207.35 131.4 0  209.9999999999998 139.649999999999 0  217.4999999999938 156.249999999991 0  223.4 172.2 0  234.349999999995 179.5000000000016 0  243.6879031604435 137.0140197666175 0  200.5383884465266 74.3488835611292 0  236.0631303447202 117.0934887033495 0  255.2860706566257 162.4962097513293 0  210.288597171716 124.9641969758756 0  200.5494091764226 101.6938959209836 0  221.0463142825589 155.4583368622661 0  213.2458552033902 137.0182369603261 0  202.5715495252679 76.72215432732189 0  203.3954031521662 88.63888283314805 0  204.2685850489914 91.3771816532193 0  227.6002395557545 108.6285485308707 0  203.628067965887 73.80056467640915 0  205.5882193517793 76.19298591547215 0  219.3893731065793 59.36381842571261 0  222.6962970705901 100.2685345181304 0  206.2147206748961 89.23684943534887 0  224.5717795045128 68.90112930058935 0  207.1505150846513 91.97409496002633 0  206.6973804802006 73.20614062920998 0  209.0198262461606 75.84435446174592 0  204.6828826698789 70.78585325419728 0  244.5505030757118 140.1958289722003 0  241.2713205316759 139.2760911012237 0  242.0887623359319 142.523888210035 0  238.8201809392432 141.5810446831215 0  239.6254755922404 144.8663288044098 0  238.0282380951174 138.3361101328854 0  235.5650201404635 140.6403522599634 0  234.7868703265066 137.3765638391416 0  232.3671992655526 139.7040340002533 0  231.5735594060041 136.4371341666237 0  203.6025996895933 45.13245413868078 0  209.0094500142995 89.77916893533093 0  234.0048963149566 134.0619286436701 0  230.7388584519252 133.0932019642386 0  256.0202376970822 152.4353991158102 0  233.1239077827668 142.9168616681826 0  229.9476468053365 142.0041066209365 0  207.8316386186595 70.1760146256688 0  205.8080150778045 67.77328389450008 0  210.1255397865818 92.58553759086743 0  249.9530000513888 175.7831884132348 0  230.7520925362455 145.2114145624654 0  227.5614746466729 144.2879078440436 0  226.855634298717 141.1029513419209 0  221.109901317114 86.07738557802102 0  221.3898452401857 82.41394785245797 0  233.1906280944642 130.7538222264552 0  229.849944657733 129.8156996791429 0  227.4514186000422 132.1240250470279 0  226.5693510741891 128.7503487535618 0  208.0732626511005 94.86195720558288 0  211.0579654481564 95.54875779444082 0  209.0041892644107 97.86214677695602 0  216.7276956906574 41.503774594868 0  224.4517166451922 143.3327513982825 0  222.7890579510523 161.0597281586643 0  209.0698801997012 67.10609773523754 0  206.9141710660066 64.58868367949086 0  211.5265666272545 70.15591236789595 0  218.2872405225432 83.97244872861398 0  207.7311279855657 86.71297189445447 0  242.9081583239214 145.8040728889821 0  240.4621480942806 148.1601866910276 0  243.7562457682554 149.0907552716282 0  241.3145175595932 151.4726760652338 0  244.57940289053 152.3666461928266 0  242.1615185950008 154.7794567484269 0  238.8718789959482 153.837018554675 0  239.7122407256576 157.1523621063041 0  236.4289375384117 156.2070529629317 0  237.2412111497984 159.5248795948406 0  240.5638486223294 160.4901132255754 0  238.1023772270576 162.8725976094984 0  241.406699334305 163.8359650846702 0  238.9630278156374 166.2175426435888 0  234.7361516891476 161.8928266488476 0  213.124654294145 93.56046727196781 0  212.0434836741439 98.5447165103807 0  209.9504013355788 100.9044854564887 0  213.0958854424699 101.5871381629478 0  210.9302285957408 103.9580876602797 0  214.0010858928389 104.7096094485587 0  211.9141605791952 107.0615795921763 0  214.9890206858068 107.8102538193681 0  212.9269247290344 110.1901972673309 0  216.0786784436673 110.8721476340726 0  209.7617142319936 109.4041944495815 0  213.932211035267 113.2627867337288 0  217.0813395790477 113.941453344218 0  218.441750941724 80.63655841437071 0  242.2412500877879 167.1781012200828 0  229.2280100589433 126.5393356137107 0  225.9203624138538 125.4446005931909 0  223.3571983269889 127.7265579015054 0  222.6136526124249 124.535547281476 0  225.3056527306165 122.1016033222114 0  220.3254947810712 126.7409252226328 0  201.0777098578984 116.3274181811247 0  219.7857338015156 123.3740225787907 0  228.3312248450329 147.5116593523427 0  223.7608055035202 140.2236832285434 0  221.3299816979287 142.3937311365609 0  245.4512147769152 155.7068319139237 0  214.9140854911084 116.3016229600955 0  241.4261562479406 177.9745543740275 0  202.8157779574545 68.56000166221941 0  240.0703975438099 175.788326095019 0  222.1092806876692 145.4935485219417 0  220.9446699547174 129.9892194059113 0  217.7131509102484 129.0121441451285 0  231.966766611991 173.6290727753235 0  244.7035101352062 164.8150950666352 0  215.4589412711449 82.35047797613059 0  218.5358717759109 108.3057574313637 0  210.0910095413371 63.89870618133642 0  207.8879031726656 61.27101234314142 0  219.5945508510063 49.26517889117938 0  204.4640092132492 79.16637174968085 0  219.054165325738 63.24726086273807 0  245.5364828646638 168.1932520030346 0  204.1722248369768 62.21708558088665 0  205.6821920907016 58.50393459316535 0  209.6155639374877 57.86856426712311 0  196.5553895895766 69.81481204083099 0  235.6123608690412 152.8874163252039 0  233.2157615582107 155.2532908181879 0  240.6837858645011 122.4172544901715 0  210.8141135626509 127.8682271622992 0  245.3812170314571 182.2522052029404 0  206.9456715292139 54.99559933887414 0  210.5075513436263 54.0697256538542 0  207.9169085133073 103.1765167571325 0  223.2431750051092 164.070583057325 0  225.7483443677002 162.1151723759482 0  206.0378951001477 96.94148998994152 0  242.6796154699829 175.6597339900036 0  214.6838055972238 146.7252062992904 0  211.9990465678071 115.5576487680909 0  221.4613603554043 78.78973924681317 0  218.3291154698718 77.0769598533563 0  200.3358005877804 107.1120377748188 0  247.4072167499741 149.4171847419639 0  211.6397508657857 39.55684201930068 0  226.8243927196049 72.17619845696734 0  215.354291780634 85.55308818793476 0  236.5600255652378 131.6759521500912 0  226.0129792461303 165.2837912620818 0  218.060680211082 117.0067370946569 0  220.2726382852709 114.6051380114157 0  212.8793579154693 118.3711453694285 0  215.022609143906 99.35520341734289 0  203.0459334752391 85.71272568041367 0  202.8915272398735 55.67723839797077 0  220.5465456567309 139.1747891305704 0  239.6921265383864 169.3260213165692 0  236.6712881821608 168.5826958099534 0  218.0125893802946 141.5012621699478 0  201.3193403438535 110.3399099823547 0  203.3799271438462 107.9393487975089 0  248.1978655115356 165.7601936670729 0  248.8804221900089 169.2105116441819 0  237.1867529048816 147.1869371163321 0  236.7369473929319 176.2832209442509 0  247.3010859001464 162.3677476585113 0  204.3727171343656 110.8209535355564 0  235.7766571132668 128.3537547116865 0  217.8932394506906 150
[...]
<PointData  Vectors="f_12"> 
<DataArray  type="Float64"  Name="f_12"  NumberOfComponents="3" format="ascii">6.1457129240592578e-01 1.1476872338070611e-01 6.7831566062553106e-01  6.1457343915075180e-01 1.1475124820268819e-01 6.7832486420778748e-01  6.1415826584807331e-01 1.1429108865704193e-01 6.7702370040747861e-01  6.1305760899089912e-01 1.1325056148054204e-01 6.7351023974146473e-01  5.7745308750239133e-01 8.9897922514562453e-02 5.4510757057709713e-01  5.2872413739502400e-01 8.4912470267758888e-02 3.3535296222261624e-01  5.1789217261521314e-01 8.0402406132819737e-02 2.9209940984038457e-01  5.2023057338319656e-01 2.1015532642570275e-01 2.1678644407893555e-01  5.6955254794236609e-01 4.6377930205225693e-01 2.0229985343173543e-01  5.9814457240310359e-01 5.5675710402637413e-01 2.1107885976964219e-01  6.6479284742806344e-01 7.4275482465207221e-01 1.8874212337516799e-01  6.6881741602547751e-01 7.6254984534820103e-01 1.7116727433827039e-01  6.6912066700838513e-01 7.6887457740675125e-01 1.6308492676140585e-01  6.9307562396960254e-01 7.6907853463466491e-01 2.1663738587773460e-01  6.5725545004153163e-01 6.7360600593177034e-01 2.6076874589519411e-01  5.5314766932514214e-01 4.0878932229322118e-01 1.9055089722901036e-01  5.2629133192874478e-01 2.8373524269209555e-01 1.8697764079341220e-01  5.3335534100662330e-01 1.0150867610676345e-01 3.4265676421845154e-01  6.0539757495404634e-01 1.0688108432563272e-01 6.4783458910992142e-01  6.0293184815613943e-01 1.0529128974767947e-01 6.3895371571954940e-01  6.0412684730118915e-01 1.0612773944888039e-01 6.4315934343561576e-01  6.0561819559938201e-01 1.0724348895362658e-01 6.4833642167556294e-01  5.9973002348358573e-01 1.0344987504126034e-01 6.2739002560353607e-01  6.3708459722555366e-01 1.3737760213437791e-01 7.4640298669855976e-01  6.2029194887159422e-01 1.2043103043872580e-01 6.9683894597066665e-01  6.3767938523797985e-01 1.3770844754756742e-01 7.4848755547417911e-01  6.4200622788259920e-01 1.4273767558691458e-01 7.5990156093281902e-01  6.4818572274951247e-01 1.4976114314756472e-01 7.7607215307323907e-01  6.4800058497637447e-01 1.4957256870348606e-01 7.7555732230774554e-01  6.4655918088074738e-01 1.4810811647116570e-01 7.7162804959556042e-01  6.6163841914698895e-01 1.6760101261914725e-01 8.0690677904593899e-01  6.8622165002642210e-01 2.0615419298274296e-01 8.4972699002055085e-01  7.0221173688511507e-01 2.3486488861517116e-01 8.6818821279119085e-01  7.0715259590883373e-01 2.4456501808111644e-01 8.7183266378720159e-01  7.0790137522632557e-01 2.4604501266537818e-01 8.7238393516595925e-01  6.9033813086034257e-01 2.1328376285015985e-01 8.5532473070935489e-01  6.7301830275415608e-01 1.8517571320450080e-01 8.2848498157444850e-01  6.1659729089994086e-01 1.1686185043483273e-01 6.8508821305559520e-01  6.0721179602956754e-01 1.0912363088123850e-01 6.5359061309122402e-01  6.0214120059554765e-01 1.0516654274288452e-01 6.3604792501280949e-01  5.9151870566222164e-01 9.7911170783005597e-02 5.9744637824897495e-01  5.9162523968686287e-01 9.7986706731709117e-02 5.9782943013167877e-01  5.9730269800771729e-01 1.0176920130536038e-01 6.1865534524652910e-01  5.9555984195999190e-01 1.0060325463521597e-01 6.1228068869180685e-01  5.8923365208426881e-01 9.6450977995473558e-02 5.8890126989393421e-01  5.8297182355220778e-01 9.2478549253757716e-02 5.6551635751224705e-01  5.5181302175259339e-01 8.1861121603013592e-02 4.3807347022246351e-01  5.4109631389615542e-01 8.6575093519120766e-02 3.8611573807414634e-01  5.0776165224648606e-01 1.1368595002057617e-01 2.2651206188896006e-01  4.9240380140751755e-01 1.5593990471288069e-01 1.4087783724995864e-01  5.0371342492462945e-01 2.5337632947459815e-01 1.2056151032156838e-01  5.2675547038236936e-01 3.8915528932271315e-01 1.0645072386375744e-01  5.4917110135856251e-01 4.8595251918114024e-01 1.0663111939539476e-01  5.6267067484477684e-01 5.3823705771841190e-01 1.0639488818361308e-01  5.7553436386793899e-01 5.8044172987432396e-01 1.0955840737157349e-01  5.9584995453802514e-01 6.3686614362435967e-01 1.1808912912273317e-01  6.2276692673091860e-01 6.9307038728032311e-01 1.3662489863120261e-01  6.3235875159974264e-01 7.1907356727608240e-01 1.3305259190220217e-01  6.3061239927361190e-01 7.1727040857586566e-01 1.3039561597561167e-01  6.2512911594727871e-01 7.0442350303442247e-01 1.3043531900629149e-01  5.9052636072047404e-01 6.1279436344378380e-01 1.2657182066056266e-01  5.8092930429285872e-01 5.8473140200498630e-01 1.2372798770970268e-01  5.7596507346650971e-01 5.6303692098751401e-01 1.2806797446424145e-01  5.5559045391815265e-01 4.8017086762618183e-01 1.3381034314236465e-01  5.2605316486349651e-01 3.5502492964409360e-01 1.3086695957172098e-01  5.1051639769587343e-01 1.3989983943958298e-01 2.2264468067043330e-01  5.3770510524518000e-01 9.5260839235071643e-02 3.6607458516693814e-01  5.5024447496591344e-01 8.8055203350468195e-02 4.2671989539317934e-01  5.6095103430534821e-01 8.7831136488993364e-02 4.7407362447458551e-01  5.7978857801428785e-01 9.1885774944085868e-02 5.5343479886616209e-01  5.7915731829514649e-01 9.0291412325511078e-02 5.5266276180124430e-01  6.0180769977756987e-01 1.0401530903693937e-01 6.3609256809298498e-01  6.1347043944525959e-01 1.1361582881425437e-01 6.7488194925822398e-01  6.1419647677753453e-01 1.1430841979252024e-01 6.7715967649062359e-01  6.0424368816203577e-01 1.0606132688790919e-01 6.4423478732556272e-01  6.1401462792280725e-01 1.1418639862340001e-01 6.7656189008864887e-01  6.1444629884115731e-01 1.1462417038825159e-01 6.7792450754386502e-01  6.1453753104838882e-01 1.1472229801356849e-01 6.7821097626710591e-01  6.1457274037138576e-01 1.1476830566613441e-01 6.7832043980669354e-01  6.1457170737409217e-01 1.1476825061772176e-01 6.7831707146574183e-01  6.1457167031925108e-01 1.1476855922417138e-01 6.7831691427445084e-01  6.1457173451181768e-01 1.1476841622876133e-01 6.7831714063298021e-01  6.1457173090612571e-01 1.1476782234583567e-01 6.7831719876561725e-01  6.1457188531615237e-01 1.1476672181101680e-01 6.7831783244923871e-01  6.1457302032388939e-01 1.1476563319022122e-01 6.7832165921565091e-01  6.1457239187912471e-01 1.1476023571108573e-01 6.7832022433482364e-01  6.1450574374247435e-01 1.1466895462020880e-01 6.7811336438188230e-01  6.1436803079115210e-01 1.1451378697123699e-01 6.7768183127171466e-01  6.0759483303929751e-01 1.0852992639032173e-01 6.5568887598309644e-01  5.9566010889161569e-01 9.9767543832878558e-02 6.1432244856430485e-01  5.5381693014523437e-01 8.4187684517704212e-02 4.4551491376867064e-01  5.1848489504091011e-01 8.3438685820043657e-02 2.9260136966784006e-01  5.1507393487497577e-01 9.6173058371682399e-02 2.7057827181168814e-01  5.4800632959494822e-01 3.7088936301159392e-01 2.0254382694700640e-01  6.4394909440582082e-01 6.8255823086920786e-01 2.1226390283729185e-01  6.6846069588934331e-01 7.6642550697054590e-01 1.6491706783856672e-01  6.7258266126656963e-01 7.7183961785237643e-01 1.6701083719193963e-01  6.7925030586562729e-01 7.7560324566820327e-01 1.7685318475096742e-01  6.8749808278143576e-01 7.7684651930236970e-01 1.9318729589282183e-01  6.8769037918228815e-01 7.4183145661277350e-01 2.4453333958128207e-01  5.9809340122098853e-01 5.4580211652401500e-01 2.2561134108666889e-01  5.1392600554600487e-01 1.5629720592379792e-01 2.2695403736564398e-01  5.7480588007161904e-01 9.1357633879222855e-02 5.3122363727675448e-01  5.9996194266884229e-01 1.0278992878062068e-01 6.2927836489085176e-01  6.0544801516461477e-01 1.0697791780783132e-01 6.4790178011527488e-01  6.0471214471236623e-01 1.0656752155738947e-01 6.4518778708168689e-01  5.9973119076603931e-01 1.0322386862025487e-01 6.2746061998471203e-01  6.0465686042075062e-01 1.0725226252842947e-01 6.4472914098240464e-01  6.1229691490670957e-01 1.1346193882859214e-01 6.7071507257206642e-01  6.5621966427840150e-01 1.6035697130118012e-01 7.9481506329037954e-01  6.6945089365959354e-01 1.7906284587434168e-01 8.2241251685645700e-01  7.0137021909333408e-01 2.3336343296531642e-01 8.6727015487643500e-01  6.4426059305882832e-01 1.4568929595631164e-01 7.6599461574372463e-01  6.2725826521040018e-01 1.2688202315213903e-01 7.1849583733787459e-01  6.0027385279882661e-01 1.0383826125109695e-01 6.2936856706841571e-01  5.9093083303564353e-01 9.7539232828323844e-02 5.9524712471108820e-01  5.8737928748974966e-01 9.5229287271542618e-02 5.8200053207197144e-01  5.6752011062453256e-01 8.5159386629080638e-02 5.0473594344531025e-01  4.9538858868963642e-01 1.3775076916976209e-01 1.6315492172689830e-01  4.9491576818627120e-01 1.8847816549480748e-01 1.3029824193122522e-01  5.1575230408910222e-01 3.2945586576147268e-01 1.1129919937274514e-01  5.8848335021950438e-01 6.1752572553278628e-01 1.1473180966040995e-01  6.0381837655884663e-01 6.5398934832885447e-01 1.2424991358375063e-01  6.3263927312289037e-01 7.1609161251071551e-01 1.3747659420832634e-01  6.2927542880067577e-01 7.1450560211528358e-01 1.3000726571254767e-01  6.1234591814036676e-01 6.7243617481800355e-01 1.3026571346253893e-01  5.0950470983575824e-01 2.4448614580416350e-01 1.4936326817243278e-01  5.9599817475889116e-01 1.0036172979733968e-01 6.1508417183969033e-01  6.1412183952052379e-01 1.1425601686124212e-01 6.7690676040624342e-01  6.2840949322514383e-01 6.4286576006923435e-01 2.1423592378085859e-01  5.8668208683014123e-01 9.4762790212094730e-02 5.7942063410282596e-01  6.7486806449247461e-01 7.7320718433762659e-01 1.7034501115997980e-01  5.9839134307856201e-01 1.0188023504764783e-01 6.2378503576554623e-01  6.3529873162037342e-01 7.2219078036593776e-01 1.3732853296278164e-01  5.1228214691378993e-01 3.0295420059635036e-01 1.1771078557214638e-01  5.0743183754628929e-01 2.1836024372004786e-01 1.5925290881999785e-01  6.2094558840503844e-01 6.9148575668852597e-01 1.3364960541726065e-01  5.8302537583514602e-01 9.2541189175651906e-02 5.6569348713931811e-01  5.2303531480229881e-01 9.6102277112098691e-02 3.0132898927753082e-01  5.0590110242910791e-01 1.1879347151511091e-01 2.1623703757669241e-01  6.9167411329705131e-01 7.6068447559995411e-01 2.2597227299905015e-01  5.8691399870465966e-01 9.4888883325771625e-02 5.8031600050989451e-01  5.8310959117334205e-01 9.2611713366655857e-02 5.6603753483076258e-01  6.0192376031676942e-01 1.0515181290705389e-01 6.3515807635547539e-01  6.2077821349877849e-01 5.9721457012986368e-01 2.4297184398879745e-01  5.1434140500688907e-01 1.0462917594308574e-01 2.5988640900325521e-01  6.0016269916508558e-01 1.0339766997412249e-01 6.2910438084884879e-01  5.0387473996761578e-01 1.3872954938903542e-01 1.9639471608899120e-01  5.8764997164718713e-01 9.5296736394053186e-02 5.8315282568920235e-01  5.8307369872136339e-01 9.2540149671009667e-02 5.6607087283397872e-01  5.8962496059538272e-01 9.6637682698514624e-02 5.9041420964673741e-01  5.9244827690377344e-01 5.4232824071157248e-01 2.0697410328994736e-01  6.1594776130265572e-01 6.1383923751193947e-01 2.0866602201243961e-01  5.7833429773471356e-01 5.0309623096506806e-01 1.9605020736744902e-01  5.9969127495346430e-01 5.7395719375096821e-01 1.9858646909726407e-01  5.6094057362420691e-01 4.4880604584216460e-01 1.8305509512206791e-01  6.3214058435307230e-01 6.6171141474070982e-01 2.0291621506415078e-01  6.1581618587640929e-01 6.2479164563383016e-01 1.9559044068585407e-01  6.4215607998996993e-01 6.9295010762276832e-01 1.9350027544223708e-01  6.2669546773913321e-01 6.5974001043734909e-01 1.8867581407559383e-01  6.4725260841921217e-01 7.1202161325198643e-01 1.8333961933562645e-01  6.5223718326327362e-01 1.5580220558406116e-01 7.8530929264483429e-01  5.0887510217790410e-01 1.2007089460846669e-01 2.2812683044154730e-01  6.5762032063881393e-01 7.3252674441861432e-01 1.8412359411795348e-01  6.5835333075112401e-01 7.4091103789552448e-01 1.7472327637935658e-01  5.3750043047529628e-01 8.7125458337132727e-02 3.7151311735924231e-01  5.9643756061065611e-01 5.7576337767839514e-01 1.8539889333409532e-01  6.0790234636679474e-01 6.1537708395309365e-01 1.8047477245875057e-01  5.9058253723480569e-01 9.7216153165672878e-02 5.9401543570192916e-01  5.9222420876953519e-01 9.8352158980450799e-02 6.0005500772789666e-01  5.0534510478311778e-01 1.7363163805231760e-01 1.8050151926490868e-01  6.1436707699669357e-01 1.1453416979464066e-01 6.7767606317826468e-01  5.7488925334674890e-01 5.1300898870214295e-01 1.7351216675510947e-01  5.8686299938544328e-01 5.5909415960713671e-01 1.6964913099160231e-01  6.1547196411804961e-01 6.4361081794667407e-01 1.7270826568755723e-01  5.1594730008909584e-01 1.2317366798538272e-01 2.5593101930957596e-01  5.3854654057811235e-01 9.2543361942951458e-02 3.7154120602987717e-01  6.6443424780364069e-01 7.5247469721402827e-01 1.7433676449578100e-01  6.6296981239848496e-01 7.5465845631191508e-01 1.6769633556652455e-01  6.5673613424907562e-01 7.4408464566629917e-01 1.6627835921560621e-01  6.6039626713271893e-01 7.5428755589604990e-01 1.6178231408218130e-01  5.0575222358949623e-01 2.0358150401133401e-01 1.6228983674781997e-01  5.1670978559374947e-01 2.6480988292530466e-01 1.6256791422610006e-01  5.2236368637964969e-01 3.0569987884908523e-01 1.5395604829949658e-01  6.5252996186134959e-01 1.5567682876400515e-01 7.8613649363754923e-01  5.9612399636920654e-01 5.9568443350076739e-01 1.6282482098223233e-01  5.2114402974092700e-01 1.1052888490865320e-01 2.8491304804957041e-01  5.9326587416658227e-01 9.9020241040797749e-02 6.0391095620613444e-01  5.9557242659404741e-01 1.0061696949796033e-01 6.1235262841607629e-01  5.9159863295833881e-01 9.7798491038901703e-02 5.9785690119826207e-01  5.2696867603598585e-01 9.7848666290272335e-02 3.1823594627172686e-01  5.2577713522200031e-01 9.1815093367391909e-02 3.1646123889437061e-01  5.4068185138209746e-01 3.6434305519513377e-01 1.7929690081645444e-01  5.2714019754634833e-01 3.0784865875551726e-01 1.7167280100014654e-01  5.1504014240250151e-01 2.3419790839054547e-01 1.7865316974907466e-01  5.0943402009194405e-01 1.9228078916685901e-01 1.8513468414797193e-01  5.0908966259605004e-01 1.4745072380603241e-01 2.1292583994305908e-01  5.1223385261658738e-01 1.2442333423202730e-01 2.3994354089258899e-01  5.0785751604355456e-01 1.5545345211811132e-01 2.0272094281899114e-01  5.1937035099067119e-01 1.0700589639842674e-01 2.8025099373447432e-01  5.1106353433650675e-01 1.2661489454219754e-01 2.3366036736596169e-01  5.3041987614273389e-01 9.5425155104410520e-02 3.3451420176010876e-01  5.4511450346863588e-01 8.9781180443793004e-02 4.0217240992147407e-01  5.5991565653836384e-01 8.8917245914585413e-02 4.6790530169616129e-01  5.7519448597329625e-01 9.1799913054792778e-02 5.3281229799474050e-01  5.8768409148075929e-01 9.6483927864869451e-02 5.8304268944623650e-01  5.4453381304868542e-01 8.9679241182343480e-02 3.9967970544615339e-01  5.1282494036052395e-01 2.3256529873783724e-01 1.7058100435137932e-01  5.4336758868165680e-01 3.8799437708422696e-01 1.6919513780362894e-01  5.5118087309529018e-01 4.2944318175792662e-01 1.6302204739876777e-01  5.7971098657460374e-01 5.1513200104550849e-01 1.8858822307225734e-01  5.8507237842589199e-01 5.4473451856413668e-01 1.7767869100570768e-01  6.1492023338267121e-01 6.1480392896633096e-01 2.0355784452199127e-01  6.1571522735168005e-01 6.3196369951846143e-01 1.8654573984444076e-01  6.4197444284876015e-01 6.8228268521568547e-01 2.0610842612580740e-01  6.3787381973807089e-01 6.8904072904292246e-01 1.8569642594536284e-01  6.5844035362716702e-01 7.2334712782047950e-01 1.9816872083981060e-01  6.1190845331379262e-01 6.3797014678097141e-01 1.6749539604835537e-01  6.5013030023863150e-01 7.2167209391322928e-01 1.7826961990010148e-01  6.6476391992220107e-01 7.4472532271111469e-01 1.8551106450324623e-01  5.5115718146858528e-01 8.6953524281653968e-02 4.3085746366289518e-01  5.9798889790998455e-01 1.0206438846127153e-01 6.2190281366558131e-01  6.6552451225480413e-01 7.6161631678633446e-01 1.6442115797544332e-01  6.6339374334181034e-01 7.6010271688718922e-01 1.6127917011770507e-01  6.5682131526909360e-01 7.5155834524453480e-01 1.5645688577010392e-01  6.6010728049842293e-01 7.5648050050010274e-01 1.5806744528590486e-01  6.6760985838862885e-01 7.6472113819618970e-01 1.6512279481570719e-01  6.5274437565410248e-01 7.4729923782827101e-01 1.5170501615644297e-01  5.8347038237759785e-01 6.0178626694328374e-01 1.1446437322911929e-01  6.5708124238119192e-01 7.5244321327159491e-01 1.5588014816921461e-01  5.5338628784412613e-01 4.4072915933445422e-01 1.6169411722919547e-01  6.1953535474880628e-01 6.6278790666998377e-01 1.6302346254145916e-01  6.0236152610875926e-01 6.2312720999903437e-01 1.5371288669833758e-01  5.2258760117719882e-01 1.0355219909102412e-01 2.9599461697845347e-01  6.5474260362166548e-01 7.3813812419184321e-01 1.6883826208727956e-01  6.1425601894078152e-01 1.1442996239487863e-01 6.7732445251407780e-01  5.9129741391148083e-01 9.7761520231922833e-02 5.9660674977424333e-01  6.1359797577064024e-01 1.1380440893980509e-01 6.7523156660905270e-01  5.7692339953548810e-01 5.4185939919104686e-01 1.5204317341771356e-01  6.4921063256087741e-01 7.4068255301895192e-01 1.5121676265013512e-01  6.4418526145873911e-01 7.3544108259519847e-01 1.4472557519215465e-01  6.0980125468219837e-01 1.1046027445530895e-01 6.6294925545465944e-01  5.8911429284397276e-01 9.7208074981567333e-02 5.8855990858781815e-01  5.4097645651678883e-01 8.7699750954439618e-02 3.8551036311044401e-01  6.6469935280338566e-01 7.1769172742385934e-01 2.2221987466831897e-01  5.9649391120149753e-01 1.0124788739182346e-01 6.1570493554880434e-01  6.0019895578148130e-01 1.0390170456499961e-01 6.2903399646568503e-01  6.2431668485192604e-01 1.2440554481477142e-01 7.0901111729136912e-01  5.7572612550544355e-01 8.8920434416707564e-02 5.3730594018798161e-01  5.9837773972743091e-01 1.0247896626572237e-01 6.2254329555989862e-01  6.0543824455039608e-01 1.0714298467414564e-01 6.4820459459412105e-01  5.9902345888512443e-01 1.0303015925906454e-01 6.2484307028282449e-01  6.0590207199988633e-01 1.0819801808533903e-01 6.4906230711734136e-01  6.0621753429249137e-01 1.0848414161472619e-01 6.5014478326781466e-01  5.9029980231159773e-01 9.7136082144770791e-02 5.9288364168831031e-01  5.0881463986794817e-01 1.9616615418358302e-01 1.7994410754345760e-01  5.0711106449776056e-01 1.5392992163471436e-01 2.0057442237690717e-01  6.6884609190160349e-01 7.6747052359886758e-01 1.6437894180066015e-01  6.3384567539905667e-01 7.2154913455262804e-01 1.3410801889681870e-01  6.1456405292119909e-01 1.1475263330709565e-01 6.7829392523518106e-01  6.1432297447839201e-01 1.1517365839533476e-01 6.7743133690580992e-01  6.1538240825532919e-01 1.1616312696289095e-01 6.8084862339558339e-01  5.5609585968154307e-01 4.6094432083301234e-01 1.5308141930126820e-01  5.4410414058709067e-01 9.1090986181479427e-02 3.9682345907129296e-01  5.3093327444439897e-01 9.6208148840038060e-02 3.3603821067229123e-01  5.0677597430904697e-01 2.3128308181234963e-01 1.4740276645834977e-01  6.1383256550566767e-01 1.1402729862071605e-01 6.7597899095993597e-01  5.7567376260619618e-01 5.5848952108003358e-01 1.3143773811558024e-01  6.4143475076627887e-01 7.1567314580751795e-01 1.6221490883677286e-01  5.6615151609220127e-01 8.8718015036547554e-02 4.9551320761936862e-01  5.7557120309119592e-01 8.9916583823576202e-02 5.3606679841642735e-01  5.4010052704425815e-01 4.4301222904657500e-01 1.1067364736483844e-01  5.1023628604369187e-01 1.7908264275875976e-01 1.9732654288407167e-01  6.6850856639259360e-01 1.7779521435055329e-01 8.2059457287352211e-01  6.0103296283720486e-01 1.0369637856562609e-01 6.3269359057512187e-01  5.1999255746059381e-01 1.0277842309025423e-01 2.8533208859538928e-01  6.6423110911299654e-01 7.4626912829732928e-01 1.8237703953415610e-01  5.5785899581968512e-01 8.8990453860646773e-02 4.5877443716897881e-01  6.6469623314945470e-01 7.5359304347971945e-01 1.7323270946268141e-01  6.7442439511110541e-01 7.5931574025374415e-01 1.8873441089058210e-01  6.4525327113395803e-01 7.2869317846122350e-01 1.5605784336307277e-01  5.6962132515651298e-01 4.7387082200810904e-01 1.9179933731216009e-01  5.4371740781434341e-01 8.4990904621376068e-02 3.9908568374480141e-01  6.1336549453671618e-01 1.1424020812088917e-01 6.7435735999811675e-01  6.2164216400