<?xml version="1.0"?>
<VTKFile type="UnstructuredGrid"  version="0.1"  >
<UnstructuredGrid>
<Piece  NumberOfPoints="600" NumberOfCells="1069">
<Points>
<DataArray  type="Float64"  NumberOfComponents="3"  format="ascii">239.8 188 0  250.2 180 0  258.2 172.4 0  257 169.4 0  259.9 157.4 0  258.7 150.3 0  261 143.5 0  251.7 144.4 0  250 138.7 0  247 138.1 0  245.2 130.8 0  247.3 126.4 0  242.7 118.6 0  231.2 107.7 0  226 102.4 0  226.5 93.90000000000001 0  224.5 91.19999999999999 0  224.5 84.09999999999999 0  234.5 73.80000000000001 0  228.4 68.90000000000001 0  230 70 0  233.4 68 0  222.7 61.5 0  220.6 45.5 0  223.4 49.40000000000001 0  224 47 0  221.8 43.09999999999999 0  221 38.40000000000001 0  219.5 38.5 0  219.4 41.69999999999999 0  217.1 36.90000000000001 0  209.7 36 0  209.5 31.69999999999999 0  205.1 29.90000000000001 0  201.5 30.40000000000001 0  199.2 38.69999999999999 0  201.8 41.40000000000001 0  194.8 53.80000000000001 0  196.1 57.69999999999999 0  193 59 0  191.4 66.09999999999999 0  193.5 66.5 0  194.1 64.40000000000001 0  195.6 64.69999999999999 0  195.4 72.40000000000001 0  199.5 77.30000000000001 0  197.7 86.90000000000001 0  200.6 87.5 0  201.5 91 0  198 94.80000000000001 0  198.6 100 0  197.3 105.4 0  198 109.5 0  197 112.7 0  198.3 116.1 0  201.3 122 0  207.2 121 0  208.1 126.7 0  205.6 127.9 0  209.1 134.9 0  210.9 144.4 0  210.1 147.9 0  213 148.4 0  215.4 149.3 0  215.1 152.8 0  219.9 159.7 0  220.3 163.2 0  218.7 164.9 0  219.9 166.7 0  221.9 169.7 0  220 170.3 0  224.9 174.7 0  229.8 177.4 0  229.7 181 0  228 172.9 0  239 178 0  240.4 180 0  239 181.5 0  241.2 185.9 0  242.95 187.99 0  241.113414658978 187.995830429654 0  242.142964269982 187.9925620181905 0  243.6619187087475 187.2054164851183 0  244.631513060971 186.1368566403919 0  245.9520480703466 184.6815359886801 0  247.7505449816197 182.6994683581873 0  252.8666666668011 177.466666666539 0  255.5333333336077 174.9333333330727 0  257.9666666666661 165.4000000000025 0  258.9333333333339 161.3999999999974 0  259.3000000000018 153.8500000000108 0  259.849999999995 146.9000000000149 0  256.350000000011 143.9499999999989 0  250.8500000000015 141.5500000000051 0  246.1000000000042 134.450000000017 0  245.0000000000049 122.5000000000082 0  239.8250000000041 115.875000000004 0  236.9500000000083 113.1500000000079 0  234.0750000000041 110.4250000000039 0  228.6000000000041 105.0500000000042 0  226.25 98.15000000000002 0  224.5 87.65000000001388 0  227.8333333333301 80.66666666667 0  231.1666666666644 77.23333333333571 0  232.2500000000014 71.90000000000116 0  230.8999999999995 68.45000000000009 0  225.5500000000108 65.20000000001409 0  222.9333333333329 57.46666666667507 0  223.1666666666663 53.43333333333877 0  218.2500000000016 39.30000000000339 0  213.4000000000277 36.45000000000337 0  200.3500000000025 34.54999999999097 0  199.4666666666726 45.53333333332282 0  197.1333333333385 49.66666666665756 0  193.5499999999978 61.6999999999891 0  193.3999999999962 69.24999999999406 0  197.4499999999954 74.84999999999454 0  198.6000000000007 82.09999999999631 0  199.7500000000014 92.8999999999985 0  198.2999999999997 97.39999999999726 0  197.950000000001 102.699999999996 0  199.7999999999944 119.049999999989 0  204.2499999999946 121.5000000000009 0  207.6499999999987 123.8499999999919 0  207.35 131.4 0  209.9999999999998 139.649999999999 0  217.4999999999938 156.249999999991 0  223.4 172.2 0  234.349999999995 179.5000000000016 0  243.6879031604435 137.0140197666175 0  200.5383884465266 74.3488835611292 0  236.0631303447202 117.0934887033495 0  255.2860706566257 162.4962097513293 0  210.288597171716 124.9641969758756 0  200.5494091764226 101.6938959209836 0  221.0463142825589 155.4583368622661 0  213.2458552033902 137.0182369603261 0  202.5715495252679 76.72215432732189 0  203.3954031521662 88.63888283314805 0  204.2685850489914 91.3771816532193 0  227.6002395557545 108.6285485308707 0  203.628067965887 73.80056467640915 0  205.5882193517793 76.19298591547215 0  219.3893731065793 59.36381842571261 0  222.6962970705901 100.2685345181304 0  206.2147206748961 89.23684943534887 0  224.5717795045128 68.90112930058935 0  207.1505150846513 91.97409496002633 0  206.6973804802006 73.20614062920998 0  209.0198262461606 75.84435446174592 0  204.6828826698789 70.78585325419728 0  244.5505030757118 140.1958289722003 0  241.2713205316759 139.2760911012237 0  242.0887623359319 142.523888210035 0  238.8201809392432 141.5810446831215 0  239.6254755922404 144.8663288044098 0  238.0282380951174 138.3361101328854 0  235.5650201404635 140.6403522599634 0  234.7868703265066 137.3765638391416 0  232.3671992655526 139.7040340002533 0  231.5735594060041 136.4371341666237 0  203.6025996895933 45.13245413868078 0  209.0094500142995 89.77916893533093 0  234.0048963149566 134.0619286436701 0  230.7388584519252 133.0932019642386 0  256.0202376970822 152.4353991158102 0  233.1239077827668 142.9168616681826 0  229.9476468053365 142.0041066209365 0  207.8316386186595 70.1760146256688 0  205.8080150778045 67.77328389450008 0  210.1255397865818 92.58553759086743 0  249.9530000513888 175.7831884132348 0  230.7520925362455 145.2114145624654 0  227.5614746466729 144.2879078440436 0  226.855634298717 141.1029513419209 0  221.109901317114 86.07738557802102 0  221.3898452401857 82.41394785245797 0  233.1906280944642 130.7538222264552 0  229.849944657733 129.8156996791429 0  227.4514186000422 132.1240250470279 0  226.5693510741891 128.7503487535618 0  208.0732626511005 94.86195720558288 0  211.0579654481564 95.54875779444082 0  209.0041892644107 97.86214677695602 0  216.7276956906574 41.503774594868 0  224.4517166451922 143.3327513982825 0  222.7890579510523 161.0597281586643 0  209.0698801997012 67.10609773523754 0  206.9141710660066 64.58868367949086 0  211.5265666272545 70.15591236789595 0  218.2872405225432 83.97244872861398 0  207.7311279855657 86.71297189445447 0  242.9081583239214 145.8040728889821 0  240.4621480942806 148.1601866910276 0  243.7562457682554 149.0907552716282 0  241.3145175595932 151.4726760652338 0  244.57940289053 152.3666461928266 0  242.1615185950008 154.7794567484269 0  238.8718789959482 153.837018554675 0  239.7122407256576 157.1523621063041 0  236.4289375384117 156.2070529629317 0  237.2412111497984 159.5248795948406 0  240.5638486223294 160.4901132255754 0  238.1023772270576 162.8725976094984 0  241.406699334305 163.8359650846702 0  238.9630278156374 166.2175426435888 0  234.7361516891476 161.8928266488476 0  213.124654294145 93.56046727196781 0  212.0434836741439 98.5447165103807 0  209.9504013355788 100.9044854564887 0  213.0958854424699 101.5871381629478 0  210.9302285957408 103.9580876602797 0  214.0010858928389 104.7096094485587 0  211.9141605791952 107.0615795921763 0  214.9890206858068 107.8102538193681 0  212.9269247290344 110.1901972673309 0  216.0786784436673 110.8721476340726 0  209.7617142319936 109.4041944495815 0  213.932211035267 113.2627867337288 0  217.0813395790477 113.941453344218 0  218.441750941724 80.63655841437071 0  242.2412500877879 167.1781012200828 0  229.2280100589433 126.5393356137107 0  225.9203624138538 125.4446005931909 0  223.3571983269889 127.7265579015054 0  222.6136526124249 124.535547281476 0  225.3056527306165 122.1016033222114 0  220.3254947810712 126.7409252226328 0  201.0777098578984 116.3274181811247 0  219.7857338015156 123.3740225787907 0  228.3312248450329 147.5116593523427 0  223.7608055035202 140.2236832285434 0  221.3299816979287 142.3937311365609 0  245.4512147769152 155.7068319139237 0  214.9140854911084 116.3016229600955 0  241.4261562479406 177.9745543740275 0  202.8157779574545 68.56000166221941 0  240.0703975438099 175.788326095019 0  222.1092806876692 145.4935485219417 0  220.9446699547174 129.9892194059113 0  217.7131509102484 129.0121441451285 0  231.966766611991 173.6290727753235 0  244.7035101352062 164.8150950666352 0  215.4589412711449 82.35047797613059 0  218.5358717759109 108.3057574313637 0  210.0910095413371 63.89870618133642 0  207.8879031726656 61.27101234314142 0  219.5945508510063 49.26517889117938 0  204.4640092132492 79.16637174968085 0  219.054165325738 63.24726086273807 0  245.5364828646638 168.1932520030346 0  204.1722248369768 62.21708558088665 0  205.6821920907016 58.50393459316535 0  209.6155639374877 57.86856426712311 0  196.5553895895766 69.81481204083099 0  235.6123608690412 152.8874163252039 0  233.2157615582107 155.2532908181879 0  240.6837858645011 122.4172544901715 0  210.8141135626509 127.8682271622992 0  245.3812170314571 182.2522052029404 0  206.9456715292139 54.99559933887414 0  210.5075513436263 54.0697256538542 0  207.9169085133073 103.1765167571325 0  223.2431750051092 164.070583057325 0  225.7483443677002 162.1151723759482 0  206.0378951001477 96.94148998994152 0  242.6796154699829 175.6597339900036 0  214.6838055972238 146.7252062992904 0  211.9990465678071 115.5576487680909 0  221.4613603554043 78.78973924681317 0  218.3291154698718 77.0769598533563 0  200.3358005877804 107.1120377748188 0  247.4072167499741 149.4171847419639 0  211.6397508657857 39.55684201930068 0  226.8243927196049 72.17619845696734 0  215.354291780634 85.55308818793476 0  236.5600255652378 131.6759521500912 0  226.0129792461303 165.2837912620818 0  218.060680211082 117.0067370946569 0  220.2726382852709 114.6051380114157 0  212.8793579154693 118.3711453694285 0  215.022609143906 99.35520341734289 0  203.0459334752391 85.71272568041367 0  202.8915272398735 55.67723839797077 0  220.5465456567309 139.1747891305704 0  239.6921265383864 169.3260213165692 0  236.6712881821608 168.5826958099534 0  218.0125893802946 141.5012621699478 0  201.3193403438535 110.3399099823547 0  203.3799271438462 107.9393487975089 0  248.1978655115356 165.7601936670729 0  248.8804221900089 169.2105116441819 0  237.1867529048816 147.1869371163321 0  236.7369473929319 176.2832209442509 0  247.3010859001464 162.3677476585113 0  204.3727171343656 110.8209535355564 0  235.7766571132668 128.3537547116865 0  217.8932394506906 150
[...]
<PointData  Vectors="f_12"> 
<DataArray  type="Float64"  Name="f_12"  NumberOfComponents="3" format="ascii">5.3147007035697025e-01 4.4839439491804334e-01 7.6292164160720155e-02  5.5984681967638827e-01 5.4380351065954102e-01 9.2091840858792615e-02  6.1192727800380808e-01 6.6237179420672043e-01 1.4076348385734519e-01  6.4135346263718063e-01 6.9129476879157270e-01 1.9169140055302442e-01  7.3850133348785552e-01 5.3396509470289810e-01 6.4228024481856694e-01  6.8225975396354410e-01 2.8034023185507412e-01 7.9645735944822094e-01  6.7969467667398131e-01 2.4637940631407218e-01 8.2057678900362763e-01  5.9497371086329864e-01 2.3900636587993793e-01 5.2272496633188459e-01  6.1518659400290387e-01 3.9649676436703130e-01 4.5335148287775767e-01  6.4114755107600085e-01 4.4922013651800607e-01 4.8677887422858263e-01  7.1397527619209877e-01 4.3505043749528538e-01 7.1477435841518167e-01  7.1516486606139784e-01 3.7292529137128705e-01 7.8808289465048131e-01  6.1834991982551357e-01 1.5839509742930905e-01 6.8304731013616016e-01  5.2860750507018128e-01 1.1575461942658548e-01 3.2598987471002527e-01  6.4851348809600129e-01 2.7184933361205976e-01 6.9502343637901254e-01  7.7011034834296532e-01 6.4320657378509927e-01 5.3917440196467303e-01  7.7498422370801701e-01 6.3901798685993472e-01 5.5003542579343434e-01  7.6948687269377458e-01 4.8450894125595823e-01 7.4780854942647856e-01  7.6772890328688093e-01 4.2023828790818768e-01 8.1700633633106901e-01  7.6091405401845247e-01 3.9718981438378720e-01 8.3216760149333158e-01  7.6307600068826920e-01 4.0418230027094315e-01 8.2782923829627220e-01  7.6299383248264563e-01 4.0297517211026829e-01 8.2894447189168519e-01  7.5776629713558441e-01 3.9175763046971390e-01 8.3373246016951663e-01  7.8754849284262340e-01 5.9253724516407458e-01 6.2954516892408730e-01  7.7951633875875426e-01 5.0917598780628637e-01 7.2995894375189563e-01  7.8933985446891730e-01 5.9867327938562231e-01 6.2293486490032135e-01  7.8915978553970567e-01 6.1602006165243062e-01 5.9830882502496552e-01  7.9152002171119429e-01 6.4773103703316537e-01 5.5530175137641791e-01  7.9126747294654054e-01 6.4634501840818126e-01 5.5698595285614383e-01  7.8903779802775542e-01 6.3456319442204756e-01 5.7162532587364168e-01  7.8225282319622702e-01 6.8091859874627669e-01 4.9598951105629446e-01  7.5358943855536731e-01 7.4345816948122612e-01 3.6228160266608078e-01  7.3213899669166316e-01 7.7801056497797694e-01 2.7678915788033370e-01  7.2341896527679184e-01 7.8887050015268800e-01 2.4578117373554251e-01  7.2142709569568086e-01 7.9158701142072707e-01 2.3820063567317509e-01  7.4258658397017430e-01 7.6968824481352205e-01 3.0611519913801349e-01  7.5934439883743277e-01 7.4206095499788671e-01 3.7286291466453458e-01  7.8641799657329736e-01 7.1231898514600855e-01 4.5250341512283843e-01  7.8765856052833738e-01 6.9972217092211109e-01 4.7325803347814693e-01  7.8809567866438346e-01 7.0875742223612004e-01 4.5976211489486912e-01  7.8951380327646203e-01 7.1015079894168121e-01 4.5902531632988003e-01  7.8964712378099844e-01 7.0455499307251113e-01 4.6780082557602931e-01  7.8876452119871820e-01 6.9857828359818530e-01 4.7610093282185401e-01  7.8901470713271304e-01 6.9194538537505479e-01 4.8647811120016221e-01  7.9077278069869272e-01 6.8135279579544816e-01 5.0438613999296222e-01  7.8953876015925584e-01 6.5050020893365579e-01 5.4914776978438207e-01  7.7976887268940942e-01 7.1138936123742369e-01 4.4676048319044204e-01  7.7539907853843282e-01 7.0982220283957764e-01 4.4364800367202473e-01  7.5237635592789409e-01 7.4201673500162479e-01 3.6252022039854226e-01  7.2251702260284889e-01 7.7629013588186713e-01 2.6283339991449661e-01  7.0287624691203143e-01 7.8167445658039159e-01 2.1830141680218423e-01  6.8612713463512154e-01 7.7449205340801497e-01 1.9459988015524524e-01  6.8282659938617796e-01 7.6474790342446608e-01 2.0143654498188340e-01  6.8081197100781621e-01 7.5752115468687375e-01 2.0734079267354408e-01  6.8273712265673414e-01 7.4578983463313686e-01 2.2856437553638409e-01  6.8667695123048533e-01 7.0101792675874841e-01 3.0162716877345463e-01  6.5030248647951716e-01 4.8159842783433127e-01 4.7892254193827183e-01  5.5921200848091268e-01 2.6317417139199734e-01 3.5076952737605904e-01  5.4940454234842384e-01 2.4466760519327044e-01 3.2424442266881898e-01  5.6783520405368215e-01 2.2169313724393880e-01 4.2590777511569533e-01  6.6910496199920000e-01 4.8826321038853976e-01 5.3626849806400501e-01  6.7476692558389517e-01 5.5566367484026524e-01 4.6612257836734639e-01  6.6468543620617870e-01 5.4999938069101162e-01 4.4258568531824283e-01  6.3525176890270796e-01 5.4468963525931735e-01 3.5367493549286960e-01  5.9502675072416511e-01 5.0033560748652972e-01 2.6354469025548966e-01  5.5735875391886025e-01 2.6228257441457353e-01 3.4117949518931856e-01  5.9493777693714978e-01 2.0807579607756557e-01 5.4662364504403893e-01  6.1753342567115188e-01 2.1106129627901679e-01 6.3802535405200511e-01  6.4019576159274882e-01 2.3785405894126591e-01 6.9829242571678840e-01  6.8272016715429795e-01 3.1873506403739105e-01 7.6022040059288098e-01  6.8109612101932715e-01 3.0118018573167160e-01 7.7789625387721417e-01  7.2958821553175224e-01 5.0543449093444959e-01 6.6183136178226043e-01  6.7461131759787751e-01 7.1540924701944431e-01 2.4968417509448659e-01  6.6132519714671678e-01 7.2916943496119702e-01 1.9926005903276656e-01  7.1827775596028931e-01 5.5706271242576610e-01 5.6876269167880156e-01  6.2297874334477343e-01 6.6096475346394057e-01 1.7327236445222954e-01  5.7321801663876304e-01 5.6539992252579307e-01 1.1394141537608750e-01  5.5629879959540030e-01 5.2430710546418635e-01 9.6761482717669087e-02  5.3510811021016003e-01 4.6096811683054645e-01 7.8741676013621420e-02  5.3323125829132667e-01 4.5450800259788726e-01 7.7411592161051077e-02  5.3253615852230851e-01 4.5208717578014540e-01 7.6994495485744302e-02  5.3295314774899250e-01 4.5354199270828938e-01 7.7248251266200552e-02  5.3411843881930632e-01 4.5755824170161030e-01 7.7969319746572702e-02  5.3652542704894135e-01 4.6582978564755628e-01 7.9458395591264580e-02  5.4052121849537238e-01 4.7977863938722615e-01 8.1653115273189331e-02  5.4807814498769836e-01 5.0527805899460576e-01 8.5895703180757246e-02  5.7714553311352712e-01 5.9094153398329341e-01 1.0495932728776972e-01  5.9610739224241005e-01 6.3409585754958997e-01 1.2221656243096746e-01  6.9724366581638419e-01 6.9553195333807238e-01 3.2996941430146831e-01  7.3084018144968455e-01 6.3332446531004694e-01 4.9001877955979978e-01  7.1823576213848139e-01 4.0462459301605552e-01 7.5921593719882330e-01  6.7386591606679569e-01 2.4323438093416008e-01 8.0595187962706316e-01  6.5155800682159581e-01 2.2106432587999494e-01 7.5092859616989305e-01  5.9998122099096096e-01 3.3569180742999233e-01 4.5583369975707272e-01  6.8944190413910322e-01 4.8028110128699469e-01 5.9802434930837822e-01  6.7934628679706677e-01 2.6588878800429216e-01 8.0217463108650811e-01  5.7197152282042785e-01 1.1564102781502111e-01 5.1821726253296385e-01  5.4003905678052611e-01 1.0052858240167757e-01 3.8476558211973716e-01  5.2502935646329185e-01 1.0184533766360127e-01 3.1724423969974497e-01  5.6197566207992133e-01 1.5021555306686660e-01 4.5194162639506735e-01  7.4354115758968164e-01 5.3104147769912358e-01 6.5720702755440707e-01  7.7384970820100152e-01 5.6489760499756292e-01 6.5152472785592752e-01  7.6732319681748651e-01 4.3445488571580904e-01 8.0194085816455762e-01  7.6784425706210635e-01 4.2339335151218188e-01 8.1396644562858111e-01  7.6669674348027261e-01 4.1650432553407951e-01 8.1964906784087155e-01  7.6302305715038166e-01 4.0362979357367085e-01 8.2832468619157051e-01  7.5558851999576582e-01 3.8065715082051482e-01 8.4156433888002558e-01  7.6504402911455360e-01 4.2462897789510273e-01 8.0947989335697612e-01  7.7302855006421123e-01 4.6724808203942714e-01 7.7203138978178498e-01  7.8515246567671471e-01 6.6490871334129475e-01 5.2305607031215651e-01  7.7430936198462363e-01 7.0083443548294189e-01 4.5599950305443782e-01  7.2989605739902852e-01 7.8404271886826249e-01 2.6387843034366470e-01  7.7789909594374440e-01 7.1599824376309895e-01 4.3739882381127965e-01  7.8424861397395385e-01 7.1552112610546481e-01 4.4534507557944064e-01  7.8834578646504583e-01 7.0444715017199111e-01 4.6666187585851449e-01  7.8996268368756906e-01 7.0180060875755645e-01 4.7238023857299055e-01  7.9077272834631041e-01 6.6102706040672643e-01 5.3484394032266647e-01  7.8535215060330132e-01 6.8901293448952328e-01 4.8717714078277768e-01  7.3312327880744899e-01 7.6664151442585771e-01 2.9511609446341269e-01  7.1384606905867665e-01 7.8053200809424972e-01 2.4086459524568937e-01  6.9229802850863520e-01 7.7873425626203219e-01 2.0140354785326761e-01  6.8592177047696623e-01 7.2321860864202370e-01 2.6818478711356830e-01  6.8239211372048225e-01 6.4531240572564552e-01 3.6861405132870206e-01  5.9491602399120458e-01 3.3781835814483852e-01 4.3084193932105580e-01  5.4924033241072490e-01 2.2701878061412856e-01 3.3853580000064887e-01  6.2525990105847806e-01 3.0886330187047212e-01 5.8466650499339445e-01  5.6644821671194590e-01 3.9839302353301398e-01 2.5572187966475696e-01  7.1798631072679664e-01 4.4787076556067557e-01 7.0807756914971798e-01  6.5588557504961753e-01 7.2110759496176191e-01 1.9686127628737382e-01  6.7103380374188659e-01 4.8203861620204758e-01 5.4415499217667340e-01  7.8968466552000005e-01 6.3906463285466009e-01 5.6592480233745379e-01  5.5261677804651610e-01 1.0770368872944154e-01 4.3702672837339296e-01  7.1839289048018795e-01 6.4125200885753686e-01 4.5409503692815062e-01  5.7281898798338748e-01 2.9045579057508736e-01 3.8468365041523989e-01  6.9935300912232523e-01 7.7989151402349610e-01 2.1405551982450532e-01  5.5967175396679758e-01 3.6207312667734837e-01 2.6194426392249348e-01  6.0049784668172079e-01 2.5779024711021487e-01 5.3401219814174361e-01  7.8808984730693687e-01 6.2522906918359811e-01 5.8415146289497866e-01  7.6739641034499717e-01 7.1429438903038733e-01 4.2644421935784738e-01  7.5457165360281231e-01 7.3642779122118374e-01 3.7480441966910077e-01  5.3913252329034467e-01 1.3098147061537951e-01 3.6375590997598678e-01  7.8636452752934627e-01 5.9353165553122134e-01 6.2681700369618920e-01  7.8428852995856357e-01 5.7751565907011959e-01 6.4650355581106034e-01  7.6248462595050437e-01 4.1334085301473356e-01 8.1809356114949883e-01  7.1697846752771455e-01 4.4335651551196958e-01 7.0982464662575051e-01  7.6675558834939506e-01 7.0398801735530647e-01 4.4168426712863362e-01  7.5766603026978308e-01 3.8763210681173849e-01 8.3751140351716891e-01  7.5700759012704844e-01 7.2852780875437273e-01 3.9079969678027260e-01  7.8057830440236908e-01 5.3733383081786268e-01 6.9528806337085280e-01  7.7778592160812443e-01 5.1904167161665182e-01 7.1549870876711152e-01  7.8317009563248119e-01 5.6077481035533894e-01 6.6760620586400798e-01  6.3452458203972517e-01 4.5070700419165322e-01 4.6303671026461529e-01  6.5666659321051279e-01 4.8561928807490479e-01 4.9617388195958262e-01  6.1958431376662515e-01 4.4513970940794878e-01 4.1525077092999663e-01  6.3986079974660126e-01 4.8614061700841932e-01 4.4011209271069457e-01  6.0164349874568390e-01 4.3091371849471666e-01 3.6253413895439968e-01  6.7024464472650569e-01 4.8093956408235816e-01 5.4418381793500903e-01  6.5475774479913584e-01 4.9040005514016788e-01 4.8460056066610219e-01  6.7163628771167028e-01 4.3590810822838688e-01 6.0295371846798329e-01  6.6094298400950913e-01 4.5982358523866124e-01 5.4164432170876498e-01  6.5927453315366880e-01 3.6552536150042603e-01 6.4421815925505999e-01  7.7462974836995702e-01 7.0753977389454070e-01 4.4639698365672509e-01  7.6779679212612395e-01 6.9009250077013706e-01 4.6428401975130196e-01  6.6280947879295116e-01 3.3529666991295415e-01 6.8711500348590882e-01  6.3054998350909697e-01 2.5586889806950186e-01 6.5308505209028622e-01  6.8671524656018612e-01 3.1323042934862450e-01 7.7562781881451726e-01  6.3812257722209764e-01 4.9601465401010914e-01 4.2264132809985910e-01  6.4925159969306634e-01 4.8364305111571659e-01 4.7527220639156664e-01  7.7614802860634180e-01 5.0230184919939458e-01 7.3421416889664104e-01  7.7956228591499332e-01 5.3109436977497193e-01 7.0212729559293274e-01  7.6066015932395781e-01 7.1867699327412560e-01 4.1132883059988673e-01  5.8393538351863394e-01 6.0179981513937453e-01 1.1591201270553941e-01  6.2023068351510169e-01 4.9295660798889879e-01 3.6322957225490132e-01  6.3596772108576571e-01 5.0136142801414352e-01 4.0922031390523311e-01  6.5328494036729767e-01 4.4900361236548919e-01 5.3026665086885749e-01  7.7260276991548094e-01 5.3789141470590207e-01 6.8550137742573281e-01  7.6884097954577668e-01 4.7562337803316096e-01 7.5756158129568207e-01  6.3049142361356414e-01 2.3307507745106468e-01 6.7212814209543836e-01  5.9001570983503737e-01 1.8089246454906904e-01 5.5375437187785570e-01  5.9609449756784050e-01 2.0448765168072133e-01 5.6134389847630795e-01  5.5862000536185752e-01 1.6173957110102882e-01 4.3107260696873873e-01  7.4742345748685346e-01 7.4976535139517331e-01 3.4422298818214103e-01  7.5372857987509712e-01 7.3757958898660481e-01 3.7269283125875569e-01  7.4073255139226968e-01 7.5540436216154849e-01 3.2554007342448305e-01  7.8558764248057456e-01 6.5186932222056426e-01 5.4270697891652531e-01  6.4740273643132984e-01 4.8699838666234363e-01 4.6557070332690587e-01  5.6837680796523427e-01 2.1912461823840026e-01 4.2468289085831434e-01  7.7216232298308307e-01 4.7528416407524193e-01 7.6177519922273185e-01  7.7689587664346538e-01 5.1108381212942500e-01 7.2427179349297621e-01  7.6798201393889398e-01 4.4871566430120147e-01 7.8710572411447521e-01  7.7185478468154767e-01 5.1571356461919471e-01 7.1264101427197757e-01  7.7521649470567899e-01 6.6025880850252794e-01 5.1834866358006815e-01  5.8421202170422393e-01 3.6043287113886713e-01 3.6579360152063167e-01  5.6898569237525631e-01 3.3625010573440239e-01 3.2543594623073174e-01  5.6297826739748491e-01 2.6783236348604234e-01 3.6271105636185264e-01  5.5462658210644400e-01 2.4691727432713406e-01 3.4400029449921554e-01  5.6644005944739950e-01 2.1047586256962822e-01 4.2653284533904251e-01  5.6729436707494174e-01 2.0223806026008567e-01 4.3659336695103007e-01  5.5103979260270775e-01 2.2492042684368774e-01 3.4632097647155818e-01  5.7426939660019538e-01 1.9887931357260508e-01 4.6941864293929930e-01  5.5353630621825844e-01 2.0701846077707500e-01 3.7163906063447616e-01  5.8817700887277125e-01 2.0477741996407592e-01 5.2413152231223026e-01  6.2468821693555865e-01 2.4842735746375905e-01 6.3422845472906342e-01  6.4541109543190522e-01 2.8926411770146787e-01 6.7223881154862664e-01  6.7799240449247200e-01 3.9063725721709186e-01 6.7278087501190786e-01  6.9005280412639025e-01 4.5613587901647284e-01 6.3104576377639388e-01  6.0926400901107358e-01 2.2546254279015762e-01 5.9362706960638012e-01  7.6378750899604142e-01 7.1036136228300639e-01 4.2863111624959438e-01  7.4931294749788879e-01 7.2570677785685156e-01 3.8496836183963262e-01  7.3805077054897583e-01 7.3124335233043025e-01 3.5878952159935701e-01  7.4324578087050752e-01 6.6118391723100245e-01 4.7321305576077843e-01  7.3361017933726358e-01 6.6292701356599482e-01 4.5384804179527194e-01  7.2333552049000149e-01 5.4071690200121802e-01 6.0296789950866791e-01  7.1696954344382680e-01 5.5143685230844464e-01 5.7616245866102123e-01  6.8413455587136107e-01 3.9891789348640028e-01 6.7957147505604287e-01  6.8300573730475977e-01 4.2795790304560016e-01 6.4362246952369195e-01  6.3353069486360369e-01 2.9407448786803875e-01 6.2357626508595787e-01  7.1200250153966238e-01 5.8151683327704295e-01 5.2542315314195298e-01  6.4072786792222192e-01 3.3922402623488240e-01 6.0508441135092583e-01  5.9074001417090061e-01 2.4791883308994128e-01 4.9841229853467278e-01  7.6874053135917064e-01 4.6927127921568296e-01 7.6483889163182761e-01  6.9589580156277220e-01 5.5942294771983958e-01 5.1538273524311218e-01  5.5680764175151765e-01 1.4564070090723213e-01 4.3362587856587020e-01  5.3487469438748836e-01 1.4883628934149792e-01 3.3281553686273319e-01  5.4077781202081199e-01 1.6673003773182604e-01 3.4720588353655207e-01  5.2785202766447081e-01 1.7058552557519410e-01 2.8600551751191206e-01  5.2251982698650268e-01 1.4832719453707482e-01 2.7743206198925330e-01  5.3513197076020491e-01 1.8629136303686053e-01 3.0728305838505621e-01  6.8661568625174496e-01 7.2926340533582334e-01 2.6105586462056102e-01  5.3237853949375269e-01 2.0088290885736196e-01 2.8343334057370806e-01  6.0245574433435389e-01 4.7882785450755777e-01 3.1347569207488341e-01  6.4993177055080187e-01 4.0182450983714335e-01 5.7377433330708105e-01  6.5289316347571114e-01 4.5509453997460902e-01 5.2224062972959195e-01  5.9962216824295100e-01 2.1302950334382487e-01 5.6573252515391492e-01  6.0201052899255503e-01 2.9333155401619204e-01 5.0311902898447824e-01  5.9533664085874516e-01 6.1318291819300685e-01 1.3910719245788591e-01  7.8544384561596325e-01 5.8956221894770955e-01 6.3121723929176710e-01  6.3083972341128458e-01 6.6498467816186513e-01 1.9272120406943566e-01  6.3947500429926274e-01 5.1528166347505933e-01 4.0483879915413051e-01  5.5040649281798038e-01 1.8317045429338796e-01 3.7863122158458229e-01  5.4393107495384430e-01 1.9896132393819363e-01 3.3733129647630911e-01  6.9814962578781892e-01 6.5168360841689343e-01 3.9382298851476644e-01  6.9649658140058646e-01 5.0937390973955221e-01 5.8213645851358220e-01  7.7291027952957092e-01 5.1316179732221012e-01 7.1715133346684046e-01  6.3008552017405450e-01 2.6149898377175623e-01 6.4146034400834873e-01  7.7040764688103258e-01 4.6381151650614300e-01 7.7292456336070792e-01  7.7616882159231859e-01 5.0600330935927718e-01 7.2970380899739107e-01  7.8137073848902083e-01 5.3004598877321074e-01 7.0545804330922213e-01  7.8592228940202713e-01 6.1931897808824965e-01 5.9021643250179634e-01  7.5802634315631678e-01 3.9374255798672148e-01 8.3214677701788153e-01  6.8436010773603373e-01 6.3542413127043473e-01 3.8264232220560229e-01  7.8260692197282555e-01 5.6768251794694147e-01 6.5790630650802628e-01  7.8166023392642592e-01 5.6046841043450801e-01 6.6643878230789133e-01  7.7598261889450015e-01 5.0317804014907297e-01 7.3306973234881201e-01  7.9028398668186417e-01 6.8304585685810193e-01 5.0132021861159182e-01  5.4768044480193956e-01 2.6904099274125437e-01 2.9432007877328104e-01  5.4505189962695044e-01 2.3818794028051285e-01 3.0867870692389271e-01  6.3944205178479940e-01 1.9419644256846660e-01 7.3387455978323801e-01  5.5270875739478798e-01 2.4460702170438567e-01 3.3884128011669828e-01  5.4755401283169935e-01 5.0183044770736229e-01 8.6856556362311529e-02  7.8211020648731566e-01 5.7008751081090836e-01 6.5421040892561577e-01  7.7894180826005133e-01 5.3037693652038587e-01 7.0238352067109988e-01  7.2666543293863473e-01 7.3467782331628873e-01 3.3397778872548317e-01  6.0572347375188118e-01 2.1212592983350434e-01 5.8815408115091350e-01  5.8111870702747759e-01 2.0429933791188665e-01 4.9262987607689884e-01  7.3294538044094848e-01 7.6775579455826504e-01 2.9361700609504937e-01  6.1365990600662224e-01 6.4209645035258434e-01 1.6665396254138951e-01  6.5956466018791482e-01 5.3907897469423560e-01 4.4078074453671678e-01  6.4684536032845819e-01 3.8755284933413953e-01 5.7562998502827734e-01  7.6583778385137302e-01 4.3898980877190447e-01 7.9523486841904334e-01  7.6538428075570675e-01 4.3658297095682330e-01 7.9728187257072580e-01  6.8881060884656431e-01 7.6804944526808483e-01 2.0958555333159726e-01  5.7213459572349579e-01 2.2140364600740089e-01 4.4267257947736971e-01  7.7289459404666672e-01 6.9928770734533141e-01 4.5668367496051937e-01  7.6250740224952629e-01 4.0402228604715940e-01 8.2740514805709031e-01  7.7464546852958016e-01 5.6498827104762073e-01 6.5229383628686555e-01  6.7000970777574087e-01 3.1955261692030501e-01 7.2490585540181451e-01  6.3227860864921337e-01 2.4489563636847195e-01 6.6219446703928930e-01  5.6048720639196403e-01 2.3145228051241851e-01 3.8272157801663331e-01  5.5106830918753369e-01 1.9533887929354460e-01 3.7042804250756595e-01  6.1222989046935827e-01 3.3656549849119566e-01 5.0128280513646195e-01  7.5215160808805959e-01 6.6722435848192818e-01 4.7838705910594947e-01  7.7808770652913473e-01 6.9127684367412490e-01 4.7532361070108664e-01  7.8564328295751074e-01 6.3124898083996117e-01 5.7308532435314508e-01  6.3875740381