<?xml version="1.0"?>
<VTKFile type="UnstructuredGrid"  version="0.1"  >
<UnstructuredGrid>
<Piece  NumberOfPoints="600" NumberOfCells="1069">
<Points>
<DataArray  type="Float64"  NumberOfComponents="3"  format="ascii">239.8 188 0  250.2 180 0  258.2 172.4 0  257 169.4 0  259.9 157.4 0  258.7 150.3 0  261 143.5 0  251.7 144.4 0  250 138.7 0  247 138.1 0  245.2 130.8 0  247.3 126.4 0  242.7 118.6 0  231.2 107.7 0  226 102.4 0  226.5 93.90000000000001 0  224.5 91.19999999999999 0  224.5 84.09999999999999 0  234.5 73.80000000000001 0  228.4 68.90000000000001 0  230 70 0  233.4 68 0  222.7 61.5 0  220.6 45.5 0  223.4 49.40000000000001 0  224 47 0  221.8 43.09999999999999 0  221 38.40000000000001 0  219.5 38.5 0  219.4 41.69999999999999 0  217.1 36.90000000000001 0  209.7 36 0  209.5 31.69999999999999 0  205.1 29.90000000000001 0  201.5 30.40000000000001 0  199.2 38.69999999999999 0  201.8 41.40000000000001 0  194.8 53.80000000000001 0  196.1 57.69999999999999 0  193 59 0  191.4 66.09999999999999 0  193.5 66.5 0  194.1 64.40000000000001 0  195.6 64.69999999999999 0  195.4 72.40000000000001 0  199.5 77.30000000000001 0  197.7 86.90000000000001 0  200.6 87.5 0  201.5 91 0  198 94.80000000000001 0  198.6 100 0  197.3 105.4 0  198 109.5 0  197 112.7 0  198.3 116.1 0  201.3 122 0  207.2 121 0  208.1 126.7 0  205.6 127.9 0  209.1 134.9 0  210.9 144.4 0  210.1 147.9 0  213 148.4 0  215.4 149.3 0  215.1 152.8 0  219.9 159.7 0  220.3 163.2 0  218.7 164.9 0  219.9 166.7 0  221.9 169.7 0  220 170.3 0  224.9 174.7 0  229.8 177.4 0  229.7 181 0  228 172.9 0  239 178 0  240.4 180 0  239 181.5 0  241.2 185.9 0  242.95 187.99 0  241.113414658978 187.995830429654 0  242.142964269982 187.9925620181905 0  243.6619187087475 187.2054164851183 0  244.631513060971 186.1368566403919 0  245.9520480703466 184.6815359886801 0  247.7505449816197 182.6994683581873 0  252.8666666668011 177.466666666539 0  255.5333333336077 174.9333333330727 0  257.9666666666661 165.4000000000025 0  258.9333333333339 161.3999999999974 0  259.3000000000018 153.8500000000108 0  259.849999999995 146.9000000000149 0  256.350000000011 143.9499999999989 0  250.8500000000015 141.5500000000051 0  246.1000000000042 134.450000000017 0  245.0000000000049 122.5000000000082 0  239.8250000000041 115.875000000004 0  236.9500000000083 113.1500000000079 0  234.0750000000041 110.4250000000039 0  228.6000000000041 105.0500000000042 0  226.25 98.15000000000002 0  224.5 87.65000000001388 0  227.8333333333301 80.66666666667 0  231.1666666666644 77.23333333333571 0  232.2500000000014 71.90000000000116 0  230.8999999999995 68.45000000000009 0  225.5500000000108 65.20000000001409 0  222.9333333333329 57.46666666667507 0  223.1666666666663 53.43333333333877 0  218.2500000000016 39.30000000000339 0  213.4000000000277 36.45000000000337 0  200.3500000000025 34.54999999999097 0  199.4666666666726 45.53333333332282 0  197.1333333333385 49.66666666665756 0  193.5499999999978 61.6999999999891 0  193.3999999999962 69.24999999999406 0  197.4499999999954 74.84999999999454 0  198.6000000000007 82.09999999999631 0  199.7500000000014 92.8999999999985 0  198.2999999999997 97.39999999999726 0  197.950000000001 102.699999999996 0  199.7999999999944 119.049999999989 0  204.2499999999946 121.5000000000009 0  207.6499999999987 123.8499999999919 0  207.35 131.4 0  209.9999999999998 139.649999999999 0  217.4999999999938 156.249999999991 0  223.4 172.2 0  234.349999999995 179.5000000000016 0  243.6879031604435 137.0140197666175 0  200.5383884465266 74.3488835611292 0  236.0631303447202 117.0934887033495 0  255.2860706566257 162.4962097513293 0  210.288597171716 124.9641969758756 0  200.5494091764226 101.6938959209836 0  221.0463142825589 155.4583368622661 0  213.2458552033902 137.0182369603261 0  202.5715495252679 76.72215432732189 0  203.3954031521662 88.63888283314805 0  204.2685850489914 91.3771816532193 0  227.6002395557545 108.6285485308707 0  203.628067965887 73.80056467640915 0  205.5882193517793 76.19298591547215 0  219.3893731065793 59.36381842571261 0  222.6962970705901 100.2685345181304 0  206.2147206748961 89.23684943534887 0  224.5717795045128 68.90112930058935 0  207.1505150846513 91.97409496002633 0  206.6973804802006 73.20614062920998 0  209.0198262461606 75.84435446174592 0  204.6828826698789 70.78585325419728 0  244.5505030757118 140.1958289722003 0  241.2713205316759 139.2760911012237 0  242.0887623359319 142.523888210035 0  238.8201809392432 141.5810446831215 0  239.6254755922404 144.8663288044098 0  238.0282380951174 138.3361101328854 0  235.5650201404635 140.6403522599634 0  234.7868703265066 137.3765638391416 0  232.3671992655526 139.7040340002533 0  231.5735594060041 136.4371341666237 0  203.6025996895933 45.13245413868078 0  209.0094500142995 89.77916893533093 0  234.0048963149566 134.0619286436701 0  230.7388584519252 133.0932019642386 0  256.0202376970822 152.4353991158102 0  233.1239077827668 142.9168616681826 0  229.9476468053365 142.0041066209365 0  207.8316386186595 70.1760146256688 0  205.8080150778045 67.77328389450008 0  210.1255397865818 92.58553759086743 0  249.9530000513888 175.7831884132348 0  230.7520925362455 145.2114145624654 0  227.5614746466729 144.2879078440436 0  226.855634298717 141.1029513419209 0  221.109901317114 86.07738557802102 0  221.3898452401857 82.41394785245797 0  233.1906280944642 130.7538222264552 0  229.849944657733 129.8156996791429 0  227.4514186000422 132.1240250470279 0  226.5693510741891 128.7503487535618 0  208.0732626511005 94.86195720558288 0  211.0579654481564 95.54875779444082 0  209.0041892644107 97.86214677695602 0  216.7276956906574 41.503774594868 0  224.4517166451922 143.3327513982825 0  222.7890579510523 161.0597281586643 0  209.0698801997012 67.10609773523754 0  206.9141710660066 64.58868367949086 0  211.5265666272545 70.15591236789595 0  218.2872405225432 83.97244872861398 0  207.7311279855657 86.71297189445447 0  242.9081583239214 145.8040728889821 0  240.4621480942806 148.1601866910276 0  243.7562457682554 149.0907552716282 0  241.3145175595932 151.4726760652338 0  244.57940289053 152.3666461928266 0  242.1615185950008 154.7794567484269 0  238.8718789959482 153.837018554675 0  239.7122407256576 157.1523621063041 0  236.4289375384117 156.2070529629317 0  237.2412111497984 159.5248795948406 0  240.5638486223294 160.4901132255754 0  238.1023772270576 162.8725976094984 0  241.406699334305 163.8359650846702 0  238.9630278156374 166.2175426435888 0  234.7361516891476 161.8928266488476 0  213.124654294145 93.56046727196781 0  212.0434836741439 98.5447165103807 0  209.9504013355788 100.9044854564887 0  213.0958854424699 101.5871381629478 0  210.9302285957408 103.9580876602797 0  214.0010858928389 104.7096094485587 0  211.9141605791952 107.0615795921763 0  214.9890206858068 107.8102538193681 0  212.9269247290344 110.1901972673309 0  216.0786784436673 110.8721476340726 0  209.7617142319936 109.4041944495815 0  213.932211035267 113.2627867337288 0  217.0813395790477 113.941453344218 0  218.441750941724 80.63655841437071 0  242.2412500877879 167.1781012200828 0  229.2280100589433 126.5393356137107 0  225.9203624138538 125.4446005931909 0  223.3571983269889 127.7265579015054 0  222.6136526124249 124.535547281476 0  225.3056527306165 122.1016033222114 0  220.3254947810712 126.7409252226328 0  201.0777098578984 116.3274181811247 0  219.7857338015156 123.3740225787907 0  228.3312248450329 147.5116593523427 0  223.7608055035202 140.2236832285434 0  221.3299816979287 142.3937311365609 0  245.4512147769152 155.7068319139237 0  214.9140854911084 116.3016229600955 0  241.4261562479406 177.9745543740275 0  202.8157779574545 68.56000166221941 0  240.0703975438099 175.788326095019 0  222.1092806876692 145.4935485219417 0  220.9446699547174 129.9892194059113 0  217.7131509102484 129.0121441451285 0  231.966766611991 173.6290727753235 0  244.7035101352062 164.8150950666352 0  215.4589412711449 82.35047797613059 0  218.5358717759109 108.3057574313637 0  210.0910095413371 63.89870618133642 0  207.8879031726656 61.27101234314142 0  219.5945508510063 49.26517889117938 0  204.4640092132492 79.16637174968085 0  219.054165325738 63.24726086273807 0  245.5364828646638 168.1932520030346 0  204.1722248369768 62.21708558088665 0  205.6821920907016 58.50393459316535 0  209.6155639374877 57.86856426712311 0  196.5553895895766 69.81481204083099 0  235.6123608690412 152.8874163252039 0  233.2157615582107 155.2532908181879 0  240.6837858645011 122.4172544901715 0  210.8141135626509 127.8682271622992 0  245.3812170314571 182.2522052029404 0  206.9456715292139 54.99559933887414 0  210.5075513436263 54.0697256538542 0  207.9169085133073 103.1765167571325 0  223.2431750051092 164.070583057325 0  225.7483443677002 162.1151723759482 0  206.0378951001477 96.94148998994152 0  242.6796154699829 175.6597339900036 0  214.6838055972238 146.7252062992904 0  211.9990465678071 115.5576487680909 0  221.4613603554043 78.78973924681317 0  218.3291154698718 77.0769598533563 0  200.3358005877804 107.1120377748188 0  247.4072167499741 149.4171847419639 0  211.6397508657857 39.55684201930068 0  226.8243927196049 72.17619845696734 0  215.354291780634 85.55308818793476 0  236.5600255652378 131.6759521500912 0  226.0129792461303 165.2837912620818 0  218.060680211082 117.0067370946569 0  220.2726382852709 114.6051380114157 0  212.8793579154693 118.3711453694285 0  215.022609143906 99.35520341734289 0  203.0459334752391 85.71272568041367 0  202.8915272398735 55.67723839797077 0  220.5465456567309 139.1747891305704 0  239.6921265383864 169.3260213165692 0  236.6712881821608 168.5826958099534 0  218.0125893802946 141.5012621699478 0  201.3193403438535 110.3399099823547 0  203.3799271438462 107.9393487975089 0  248.1978655115356 165.7601936670729 0  248.8804221900089 169.2105116441819 0  237.1867529048816 147.1869371163321 0  236.7369473929319 176.2832209442509 0  247.3010859001464 162.3677476585113 0  204.3727171343656 110.8209535355564 0  235.7766571132668 128.3537547116865 0  217.8932394506906 150
[...]
<PointData  Vectors="f_12"> 
<DataArray  type="Float64"  Name="f_12"  NumberOfComponents="3" format="ascii">4.8333796912743782e-01 1.2870603768226149e-01 1.2165214289437407e-01  4.8331630616845817e-01 1.2938128843639152e-01 1.2120601632510696e-01  4.8332973925588030e-01 1.2965732643324213e-01 1.2110695380261184e-01  4.8342184583492753e-01 1.2894217540295039e-01 1.2183761101069351e-01  4.8440463739590750e-01 1.2212799347524086e-01 1.2919745097618329e-01  4.8539339818185934e-01 1.1684585838960934e-01 1.3577291543944936e-01  4.8577230547388411e-01 1.1479412870878263e-01 1.3831500828344512e-01  4.8712065892400830e-01 1.1092088960695402e-01 1.4554169218659968e-01  4.8966252850708658e-01 1.0369118355022590e-01 1.5925700288857234e-01  4.9077826699411148e-01 1.0070350781105099e-01 1.6524848009048018e-01  4.8964618164802298e-01 1.0190195459729849e-01 1.6030353293802624e-01  4.8698445088213332e-01 1.1274493833171430e-01 1.4420416336926045e-01  4.8872258896673398e-01 1.8498719441369954e-01 1.0906818084758040e-01  5.5546263750060598e-01 5.1379543594865895e-01 1.0336772966140036e-01  6.2896307390978168e-01 6.8785321477926598e-01 1.6016585762730726e-01  7.1830988547245711e-01 7.2719486867275940e-01 3.2848687971953466e-01  7.3935404337815147e-01 6.6681958983749801e-01 4.5567616969097102e-01  7.1647106466589994e-01 3.4286625364121931e-01 8.1803421147470134e-01  6.3174017928161286e-01 1.4864104738292924e-01 7.3359344489691014e-01  5.5569272704967176e-01 1.2951615130071473e-01 4.3159381967710003e-01  5.7305089784104024e-01 1.2360822566991261e-01 5.1117063414812003e-01  5.6355880789768287e-01 1.0172529971621572e-01 4.9220619253704156e-01  5.6915947529579880e-01 3.4341091805291918e-01 3.1774625863182454e-01  7.4154374479345864e-01 6.6356839970659620e-01 4.6759874150530761e-01  7.1918134291767544e-01 5.2124132671471801e-01 6.2226167953556832e-01  7.4734662232950400e-01 6.8583842123667826e-01 4.4308210492153371e-01  7.4354404410569497e-01 7.0066218429428406e-01 4.1474034356153905e-01  7.4204012869805969e-01 7.4617047126277036e-01 3.4297072789847621e-01  7.4186666643555388e-01 7.4339943255779084e-01 3.4687177497327620e-01  7.4093497729426316e-01 7.2022260511956249e-01 3.8073272476599324e-01  7.2504092982592472e-01 7.4513106232690807e-01 3.1583167191143247e-01  6.7754367478375288e-01 7.2810030961758720e-01 2.3878749419501441e-01  6.4125848475406944e-01 7.1014364594622903e-01 1.7018173381763180e-01  6.2768220992135204e-01 6.9768118758761055e-01 1.4721606196465620e-01  6.2538621863145372e-01 6.9551048083935085e-01 1.4318934831372604e-01  6.6197193456234549e-01 7.1741629699013787e-01 2.1614856462521495e-01  6.8247448552915468e-01 7.0506923445392777e-01 2.8472124401571552e-01  5.8127956320426555e-01 4.9213678795025712e-01 2.2044248371725275e-01  5.3664099536677301e-01 3.5212503976569343e-01 1.7406273332460034e-01  5.0984955744661886e-01 2.5223203371216812e-01 1.4599873951166642e-01  5.0870679859886803e-01 9.8708098747895351e-02 2.4292357564857237e-01  5.0951224588485433e-01 1.0263495873168921e-01 2.4403690272306439e-01  5.0423930668624972e-01 1.8181861114644390e-01 1.7179016057016011e-01  5.0583608305223404e-01 1.6038155381637956e-01 1.9228645677430703e-01  5.2460971897624209e-01 8.9876712622346630e-02 3.1775571997563257e-01  5.9079392744963821e-01 1.2077037756324126e-01 5.8844414670725398e-01  7.3497949351920766e-01 3.7456655215460055e-01 8.2350944320360386e-01  7.3752808634559452e-01 4.0994961890142223e-01 7.8644441988649194e-01  7.4844672268536305e-01 5.9151128066749958e-01 5.7815069179558232e-01  7.2730537374231052e-01 7.1660019033902544e-01 3.6131836281583507e-01  6.8583307224456813e-01 7.3581849185419679e-01 2.4601531242222477e-01  6.2841535642632063e-01 6.8863023724258332e-01 1.5857494118138263e-01  5.8882188022836124e-01 6.1203792291238579e-01 1.2111992400697492e-01  5.6417789806691954e-01 5.4830907384870153e-01 1.0176699048744388e-01  5.4674962463744614e-01 4.9496769623243964e-01 9.0035488703649802e-02  5.2683259472595623e-01 4.2444422031516094e-01 7.9170310337785224e-02  5.2080971499505224e-01 3.8439624919872772e-01 8.8401396245110661e-02  4.9364716084164095e-01 2.2438825936197587e-01 1.0236508060275366e-01  4.8921837732163148e-01 1.9830874078040256e-01 1.0286185779702763e-01  4.8868859328527031e-01 1.2825729562229418e-01 1.4207944700412145e-01  5.0109003685398379e-01 8.5622557507419123e-02 2.1507329024128954e-01  5.0252105747503484e-01 8.4515111924454767e-02 2.2160304943323117e-01  5.0150649707587858e-01 8.5733342390380718e-02 2.1671356168460448e-01  4.9906224849340552e-01 8.8891984494848461e-02 2.0489558226033289e-01  4.9602702499128459e-01 9.2935203451359694e-02 1.9033481677905348e-01  4.8989249001871149e-01 1.0365377896700115e-01 1.6018068683896036e-01  4.8785492913598938e-01 1.0830410717329322e-01 1.4977634134940868e-01  4.8737676711196887e-01 1.0948194804323065e-01 1.4730206220842454e-01  4.8705925625712138e-01 1.1042326467506017e-01 1.4557747631673001e-01  4.8653832666172114e-01 1.1215426243132037e-01 1.4265149748876574e-01  4.8661565151036928e-01 1.1179358364063519e-01 1.4313998953791035e-01  4.8577965156803599e-01 1.1509659803663454e-01 1.3817483387220228e-01  4.8446329003664729e-01 1.2150147583374928e-01 1.2975449776682701e-01  4.8436685042488897e-01 1.2194249405057776e-01 1.2915601394749918e-01  4.8534229876329810e-01 1.1725479199716878e-01 1.3535629453700562e-01  4.8381485167758176e-01 1.2571373085259735e-01 1.2504996418868131e-01  4.8350664821145145e-01 1.2773491282077071e-01 1.2280601329185255e-01  4.8343207291505913e-01 1.2818387888433555e-01 1.2228505745628349e-01  4.8334791589530629e-01 1.2866972341509808e-01 1.2170886659811478e-01  4.8334168664199761e-01 1.2870122701601072e-01 1.2166860556162137e-01  4.8334064576275676e-01 1.2869819596950421e-01 1.2166636365006538e-01  4.8334135716592036e-01 1.2869904643709032e-01 1.2166855649291192e-01  4.8334324171172277e-01 1.2870213403647654e-01 1.2167391255917782e-01  4.8334675722242926e-01 1.2871125728221611e-01 1.2168208355260643e-01  4.8334719349193506e-01 1.2878070665348620e-01 1.2164614723105989e-01  4.8334195317074535e-01 1.2896017557844103e-01 1.2152950820257093e-01  4.8330043277671481e-01 1.2970994050056997e-01 1.2096902854274109e-01  4.8330500638132234e-01 1.2980495966098757e-01 1.2093476984224538e-01  4.8368425734354009e-01 1.2696132157430456e-01 1.2388886531545135e-01  4.8402348783279847e-01 1.2456532122181070e-01 1.2645275456841462e-01  4.8483227391210848e-01 1.1973911876406315e-01 1.3209412144119323e-01  4.8572406138714136e-01 1.1510457676357456e-01 1.3796446507937263e-01  4.8592322605035837e-01 1.1440855402288001e-01 1.3909347795233096e-01  4.8870511628045021e-01 1.0631886712093419e-01 1.5412384029029988e-01  4.9158384724793575e-01 9.7541257603058359e-02 1.7018415482539451e-01  4.8619580037274507e-01 1.3653854571731269e-01 1.2806614069121644e-01  4.9682320955347292e-01 2.4742081101446206e-01 9.9145457621655469e-02  5.1154415842971812e-01 3.3110187791022955e-01 9.4684557002639030e-02  5.3124430282491453e-01 4.2241563597903337e-01 9.5790098404974169e-02  5.8495042038432410e-01 5.9965045966323305e-01 1.2101093676375858e-01  6.8340170288191671e-01 7.4197460299323892e-01 2.3362819140637975e-01  7.4626996638623366e-01 5.2357212095314076e-01 6.6632393581593674e-01  6.7310878435083343e-01 2.0766570965562128e-01 8.3318425150475639e-01  6.4381196363681392e-01 1.6039669004641177e-01 7.7092600012544643e-01  6.1594718848088914e-01 1.3916884718985073e-01 6.7816469601848395e-01  5.6908114414274791e-01 1.1510279494686169e-01 5.0258021602146186e-01  5.3057297973278206e-01 2.0457937568283405e-01 2.7019321402389435e-01  6.3204837725686835e-01 4.0852379740513090e-01 4.9940814774694126e-01  6.8431504191731485e-01 4.5188337642752391e-01 6.1937083252940206e-01  7.3144481528053817e-01 7.3769727692905940e-01 3.3815543476450100e-01  7.1164420518791749e-01 7.4088495986328340e-01 2.9628199047870185e-01  6.4110845541393569e-01 7.0900094877560316e-01 1.7088347937313983e-01  6.7647345219426203e-01 6.5034363704109655e-01 3.4559829189026064e-01  6.3075958379848884e-01 5.8886152248785861e-01 2.8924228847709876e-01  5.0660114257797495e-01 2.2445242725083436e-01 1.5229110315573963e-01  5.1213866710839007e-01 9.6402210566708557e-02 2.5899332913385459e-01  5.4504144191649606e-01 9.3563469642191477e-02 4.0626804731589417e-01  6.9105000672116379e-01 2.5399278971249839e-01 8.3984983102794342e-01  7.3786938602533969e-01 6.8239589245469479e-01 4.3032125075034244e-01  7.1247181951300376e-01 7.3222680023255249e-01 3.0924104857775514e-01  6.5384009234777174e-01 7.1828769902613732e-01 1.9112232966907097e-01  5.3328564886367913e-01 4.4853329844468565e-01 8.2293774063141631e-02  5.2598644824809759e-01 4.1764031293029769e-01 8.1445303002155300e-02  5.0608516342916410e-01 3.0167759030371422e-01 9.5760138089076879e-02  4.8767857387308267e-01 1.7024741255290171e-01 1.1410556635538333e-01  4.9526479115303440e-01 9.6410661364325009e-02 1.8540952776466174e-01  4.9309278910304710e-01 9.7519395867964612e-02 1.7610629649895085e-01  4.8598077024772363e-01 1.1430493200446763e-01 1.3936706701004395e-01  4.8424372070476196e-01 1.2275251513773486e-01 1.2825628842479203e-01  4.9168173914589408e-01 9.7985510434542997e-02 1.7030128531883995e-01  5.5140752604735677e-01 1.0039792842367813e-01 4.2983136327905103e-01  5.0234181170956549e-01 2.8051892640918152e-01 9.7012345801815406e-02  4.8390135070060075e-01 1.2544698451891750e-01 1.2551925071878628e-01  5.0045122163860789e-01 2.6772846336933048e-01 9.8616980605897644e-02  6.6893340402067902e-01 7.2944410915534952e-01 2.1477012882339278e-01  4.9211757559369440e-01 9.9272462481538010e-02 1.7129335369062348e-01  4.9218080783039503e-01 1.0688725937420782e-01 1.6742850627504854e-01  5.8298996864783159e-01 1.1825334907883893e-01 5.5577501949897501e-01  7.4611099654229596e-01 4.8942910774628023e-01 7.0802947837823627e-01  7.4936862400508841e-01 5.9753130553060196e-01 5.7127338208930523e-01  5.6652689273685930e-01 5.4926188203876680e-01 1.0860905504393085e-01  5.4389065745623244e-01 1.0748819862741543e-01 3.9170785218555204e-01  5.6968524759871009e-01 1.1664118847745229e-01 4.9964448194192618e-01  6.0517387520188393e-01 4.0238976272069293e-01 4.0482757968901539e-01  6.6230612459418980e-01 7.2728384836358873e-01 2.0146933054930449e-01  7.4857880059150750e-01 5.2179348541766191e-01 6.7171622541871900e-01  5.3443810201355602e-01 1.5658613267969695e-01 3.2062892387011943e-01  7.4871285662218845e-01 6.1892894645986540e-01 5.4049981870822783e-01  5.3349394574295039e-01 1.1679578514289164e-01 3.4050512240201114e-01  5.5808303215562838e-01 1.1820073411365357e-01 4.4889926459674045e-01  5.1936586456146305e-01 1.2546709949646265e-01 2.7288275501959924e-01  4.9073433818458928e-01 1.0097395886147115e-01 1.6492289037583377e-01  4.9169288400456618e-01 9.8394757319576018e-02 1.7011070564104369e-01  4.9049281027214453e-01 1.0177605545268094e-01 1.6354164752755845e-01  4.9163533781625529e-01 9.8916241962332119e-02 1.6959422156405946e-01  4.9021110334777551e-01 1.0267711484980524e-01 1.6195347139318919e-01  4.9213137738667079e-01 9.7099304788517388e-02 1.7257799838318885e-01  4.9248101571857644e-01 9.6814859483310506e-02 1.7410419008834765e-01  4.9197150107164211e-01 9.7683943933259687e-02 1.7166069804052050e-01  4.9290267480257649e-01 9.5904583038851174e-02 1.7630300956643655e-01  4.9133732670256075e-01 1.0061505842851003e-01 1.6758917012891503e-01  6.9043640799562978e-01 6.6773034908532525e-01 3.5664394427511703e-01  7.5003793401493690e-01 5.5051044381923475e-01 6.3713090581926191e-01  4.8999682193155214e-01 1.0565234097817118e-01 1.5960226701271585e-01  4.8888702539228712e-01 1.1529224191736202e-01 1.5001929087901653e-01  4.8513694751133246e-01 1.1823789925692527e-01 1.3405322420309243e-01  4.9281701423783758e-01 9.6664244275163264e-02 1.7550467539909212e-01  4.9382424656418161e-01 9.4624203826225176e-02 1.8065040413649994e-01  5.1530327148594757e-01 1.4872682024211803e-01 2.4111918962268020e-01  5.1140533505252961e-01 1.7471672865192994e-01 2.0695431488659988e-01  7.4628785212347593e-01 6.4402017800855638e-01 5.0065076360746164e-01  4.8333893934854494e-01 1.2937231344228664e-01 1.2129533151365543e-01  4.9306982374962471e-01 9.6704628532334233e-02 1.7647371993324618e-01  4.9460799326189148e-01 9.3858420974534298e-02 1.8418018830209870e-01  4.9449870303616772e-01 9.3578491414601062e-02 1.8394338545780048e-01  7.3784928895049595e-01 4.4939796433090307e-01 7.4424055403832834e-01  6.9467969079780945e-01 2.8539607458623528e-01 8.2054689991171148e-01  4.8793539678331721e-01 1.2481468441225368e-01 1.4108398590805857e-01  4.8777775074823615e-01 1.4357597082149676e-01 1.2985667925395644e-01  4.8821362473612223e-01 1.2865421272835739e-01 1.3999622856558475e-01  4.8880935596502140e-01 1.6750157156878762e-01 1.1972244033354923e-01  7.3467925949992963e-01 6.9083222542067402e-01 4.1199985744087025e-01  7.2781327430159004e-01 7.0760259554360383e-01 3.7467371294725998e-01  7.0914452542967854e-01 7.2945599891825075e-01 3.0616712811743108e-01  7.3385929753194401e-01 7.2261542156303260e-01 3.6514886528955820e-01  4.9592746642696733e-01 9.1709271468746564e-02 1.9068280580747937e-01  4.8856934299336757e-01 1.0665291030847075e-01 1.5342597803176447e-01  5.1622987002378617e-01 2.1637877009406592e-01 1.9821748727213789e-01  5.2291079035515331e-01 2.6431164454041928e-01 1.8957280558267964e-01  5.1545246007295120e-01 1.6562168943715266e-01 2.3131376698260681e-01  7.1000437861043009e-01 3.3859066654420644e-01 8.0612109044318303e-01  7.3496237242222551e-01 4.2227712957093289e-01 7.6876569716449406e-01  4.8891787013107602e-01 1.0596443346496487e-01 1.5514263195711311e-01  4.8859106961039217e-01 1.0697889271836165e-01 1.5333321405247344e-01  4.8746221452275845e-01 1.1018306769484457e-01 1.4725505459182942e-01  4.8717050986454868e-01 1.1121098740705926e-01 1.4558460321128017e-01  4.8630150541269912e-01 1.1409534936176986e-01 1.4070895655736571e-01  4.8605684751982109e-01 1.1510704089114814e-01 1.3923378215692864e-01  4.8694209173121294e-01 1.1200914079701772e-01 1.4428135028899974e-01  4.8589502864137768e-01 1.1575938171747548e-01 1.3826758550364407e-01  4.8678649928644541e-01 1.1250944074691532e-01 1.4341708450123447e-01  4.8581104515432555e-01 1.1603552853440588e-01 1.3779910460088568e-01  4.8510658980808680e-01 1.1908517173426321e-01 1.3348693758691563e-01  4.8507506048359578e-01 1.1914916492947046e-01 1.3333221480298371e-01  4.8452731263039966e-01 1.2191690186407117e-01 1.2977514515245941e-01  4.8453659964735146e-01 1.2176220456676413e-01 1.2989246750952047e-01  4.8579902285923798e-01 1.1594809582179828e-01 1.3779879396340250e-01  7.3974246314691894e-01 6.7736110676089722e-01 4.4086696259705832e-01  6.9935698803654045e-01 7.3533436909093441e-01 2.7720468333969883e-01  6.7709524289902823e-01 7.3369333461987840e-01 2.2905143792322610e-01  6.6603894857673340e-01 7.2941718785489351e-01 2.0792849657561097e-01  6.4344827791792991e-01 7.0842842114215210e-01 1.7592883980909696e-01  6.3221191808748500e-01 6.9502861221719170e-01 1.6105985758777480e-01  6.1129574666995601e-01 6.5963488190961383e-01 1.4041827805002649e-01  6.0154496800380031e-01 6.4074577019639711e-01 1.3103478246222758e-01  5.8272856740854162e-01 5.9597540913341285e-01 1.1729026262408684e-01  5.7512469673007738e-01 5.7592306136076743e-01 1.1201746958825712e-01  5.9076122732900738e-01 6.1540815343699184e-01 1.2362878758266831e-01  5.5890813365879899e-01 5.2693019949273667e-01 1.0320210023622904e-01  5.5270564910150521e-01 5.0602517016596915e-01 1.0060231301319304e-01  6.5159147026731434e-01 2.0642510130749592e-01 7.5812827380782910e-01  4.8410877928004276e-01 1.2422420100159270e-01 1.2695724949290663e-01  4.9014424128409617e-01 1.8690667265501706e-01 1.1296515665124807e-01  4.9398977975349112e-01 2.2166424265263515e-01 1.0538358886544646e-01  4.9093243578399065e-01 1.9339372293964238e-01 1.1189512544562503e-01  4.9837263140212662e-01 2.5350966915478884e-01 1.0065983171169511e-01  5.0415868285205157e-01 2.8982191118659834e-01 9.7089982436043262e-02  4.9369362526813865e-01 2.1886727216731205e-01 1.0610721948779960e-01  5.4210000831528826e-01 4.7881489623813606e-01 8.7745905555903225e-02  5.0366580065996158e-01 2.8710642331421699e-01 9.7179527921673600e-02  4.9323360764677776e-01 9.6837708644742920e-02 1.7704336935364989e-01  4.9481687326466678e-01 9.3686490228176003e-02 1.8517589410617577e-01  4.9689720022736694e-01 9.0464319869779708e-02 1.9530605699261885e-01  4.8538721439566151e-01 1.1775095587866914e-01 1.3526681747502248e-01  5.3912206192227319e-01 4.5664323836164389e-01 9.5534678792401517e-02  4.8359362783923615e-01 1.2721662003738446e-01 1.2341071436466525e-01  5.1192295187031900e-01 1.3999891352028301e-01 2.3147749522351677e-01  4.8379186883591463e-01 1.2592070877714784e-01 1.2485170969812356e-01  4.9700949482864237e-01 9.0691217706138832e-02 1.9558793084387474e-01  4.8900550554396682e-01 1.6589550380373208e-01 1.2141127596671604e-01  4.9030191370423626e-01 1.8561442039587481e-01 1.1435441273274487e-01  4.8470064877233443e-01 1.2043712558517213e-01 1.3121989039958376e-01  4.8411910717806717e-01 1.2423281278332458e-01 1.2699189282767021e-01  6.7618914962115029e-01 2.5206396061193409e-01 7.9790978464087536e-01  5.9272339838384291e-01 6.2154524395474187e-01 1.2365446860211085e-01  5.3756271995332294e-01 3.1703909506352884e-01 2.0760653772771440e-01  5.5501524106417410e-01 3.7903356832788482e-01 2.2486079974303086e-01  7.2247537230993897e-01 5.5342607258491205e-01 5.8536888205583548e-01  6.2159170825943966e-01 1.5280518827184589e-01 6.8955923535097186e-01  5.5663120374016584e-01 3.3475345010706259e-01 2.7319909285689836e-01  4.8379190403102323e-01 1.2625067464029352e-01 1.2467586539307747e-01  5.2962733520692185e-01 3.0365186759592644e-01 1.8614753403745715e-01  5.7595934718598174e-01 4.3932615308717227e-01 2.5112727434603754e-01  6.0545354133143903e-01 4.7144840962884127e-01 3.3185461887006551e-01  5.1713566274323153e-01 9.8173934185051395e-02 2.7963857488779820e-01  4.8807314405703550e-01 1.0855812173115342e-01 1.5048653240800491e-01  4.8790340313942093e-01 1.0899711726035000e-01 1.4959637558464955e-01  4.8739470350103553e-01 1.6121132925745729e-01 1.1827637868376811e-01  4.9202093697876242e-01 2.0972170326033576e-01 1.0579749827794800e-01  4.8335945592119356e-01 1.2876723629256109e-01 1.2169910016512933e-01  6.2804216719058348e-01 5.1932981403241696e-01 3.5926751387719591e-01  6.5691993446615893e-01 5.1639855118910216e-01 4.5886881431142534e-01  6.5399348878061958e-01 7.1856375996255384e-01 1.9136508948331565e-01  4.8742340498604186e-01 1.0955487102718971e-01 1.4744262589283458e-01  4.8760625241795535e-01 1.0927596924561597e-01 1.4829761665993862e-01  7.1866580120240442e-01 7.1990782008542997e-01 3.3913701832853810e-01  4.8361147052488757e-01 1.2719257812608814e-01 1.2349067908797716e-01  5.0075007761701462e-01 8.6480972195776246e-02 2.1318301433885367e-01  5.4421823093393717e-01 4.7686830089126164e-01 9.6357312822813027e-02  6.3041104449593810e-01 1.7357533548316148e-01 7.0790310078158214e-01  5.8470367122042455e-01 1.3776566193534784e-01 5.5206404228612094e-01  6.1217687472431914e-01 6.5989206125909228e-01 1.4258367567034771e-01  4.8666408719548154e-01 1.1262540064094109e-01 1.4288116039377419e-01  7.1043009802099288e-01 7.2895392258823699e-01 3.1165806227109083e-01  5.7058054559041005e-01 1.2852678648372326e-01 4.9605542777947281e-01  7.2581731642031388e-01 3.9645555362564155e-01 7.8021110672180860e-01  4.8897239768468526e-01 1.1097224231218138e-01 1.5271959144357536e-01  4.8674228267626640e-01 1.1181158024344094e-01 1.4361627264428115e-01  5.3370624894179985e-01 4.3433707448772130e-01 9.4766733516378737e-02  5.4575712042057445e-01 4.8099976503077463e-01 9.8259809099828593e-02  5.2814052417181123e-01 4.1241224169118951e-01 9.2535506306135454e-02  6.8655036943917624e-01 7.3774570855951926e-01 2.4558111810701558e-01  7.2714602365943071e-01 3.7081849675213308e-01 8.0901187015400744e-01  5.9434320459209344e-01 4.9382723193461325e-01 2.6628104163895827e-01  4.9457743452