<?xml version="1.0"?>
<VTKFile type="UnstructuredGrid"  version="0.1"  >
<UnstructuredGrid>
<Piece  NumberOfPoints="600" NumberOfCells="1069">
<Points>
<DataArray  type="Float64"  NumberOfComponents="3"  format="ascii">239.8 188 0  250.2 180 0  258.2 172.4 0  257 169.4 0  259.9 157.4 0  258.7 150.3 0  261 143.5 0  251.7 144.4 0  250 138.7 0  247 138.1 0  245.2 130.8 0  247.3 126.4 0  242.7 118.6 0  231.2 107.7 0  226 102.4 0  226.5 93.90000000000001 0  224.5 91.19999999999999 0  224.5 84.09999999999999 0  234.5 73.80000000000001 0  228.4 68.90000000000001 0  230 70 0  233.4 68 0  222.7 61.5 0  220.6 45.5 0  223.4 49.40000000000001 0  224 47 0  221.8 43.09999999999999 0  221 38.40000000000001 0  219.5 38.5 0  219.4 41.69999999999999 0  217.1 36.90000000000001 0  209.7 36 0  209.5 31.69999999999999 0  205.1 29.90000000000001 0  201.5 30.40000000000001 0  199.2 38.69999999999999 0  201.8 41.40000000000001 0  194.8 53.80000000000001 0  196.1 57.69999999999999 0  193 59 0  191.4 66.09999999999999 0  193.5 66.5 0  194.1 64.40000000000001 0  195.6 64.69999999999999 0  195.4 72.40000000000001 0  199.5 77.30000000000001 0  197.7 86.90000000000001 0  200.6 87.5 0  201.5 91 0  198 94.80000000000001 0  198.6 100 0  197.3 105.4 0  198 109.5 0  197 112.7 0  198.3 116.1 0  201.3 122 0  207.2 121 0  208.1 126.7 0  205.6 127.9 0  209.1 134.9 0  210.9 144.4 0  210.1 147.9 0  213 148.4 0  215.4 149.3 0  215.1 152.8 0  219.9 159.7 0  220.3 163.2 0  218.7 164.9 0  219.9 166.7 0  221.9 169.7 0  220 170.3 0  224.9 174.7 0  229.8 177.4 0  229.7 181 0  228 172.9 0  239 178 0  240.4 180 0  239 181.5 0  241.2 185.9 0  242.95 187.99 0  241.113414658978 187.995830429654 0  242.142964269982 187.9925620181905 0  243.6619187087475 187.2054164851183 0  244.631513060971 186.1368566403919 0  245.9520480703466 184.6815359886801 0  247.7505449816197 182.6994683581873 0  252.8666666668011 177.466666666539 0  255.5333333336077 174.9333333330727 0  257.9666666666661 165.4000000000025 0  258.9333333333339 161.3999999999974 0  259.3000000000018 153.8500000000108 0  259.849999999995 146.9000000000149 0  256.350000000011 143.9499999999989 0  250.8500000000015 141.5500000000051 0  246.1000000000042 134.450000000017 0  245.0000000000049 122.5000000000082 0  239.8250000000041 115.875000000004 0  236.9500000000083 113.1500000000079 0  234.0750000000041 110.4250000000039 0  228.6000000000041 105.0500000000042 0  226.25 98.15000000000002 0  224.5 87.65000000001388 0  227.8333333333301 80.66666666667 0  231.1666666666644 77.23333333333571 0  232.2500000000014 71.90000000000116 0  230.8999999999995 68.45000000000009 0  225.5500000000108 65.20000000001409 0  222.9333333333329 57.46666666667507 0  223.1666666666663 53.43333333333877 0  218.2500000000016 39.30000000000339 0  213.4000000000277 36.45000000000337 0  200.3500000000025 34.54999999999097 0  199.4666666666726 45.53333333332282 0  197.1333333333385 49.66666666665756 0  193.5499999999978 61.6999999999891 0  193.3999999999962 69.24999999999406 0  197.4499999999954 74.84999999999454 0  198.6000000000007 82.09999999999631 0  199.7500000000014 92.8999999999985 0  198.2999999999997 97.39999999999726 0  197.950000000001 102.699999999996 0  199.7999999999944 119.049999999989 0  204.2499999999946 121.5000000000009 0  207.6499999999987 123.8499999999919 0  207.35 131.4 0  209.9999999999998 139.649999999999 0  217.4999999999938 156.249999999991 0  223.4 172.2 0  234.349999999995 179.5000000000016 0  243.6879031604435 137.0140197666175 0  200.5383884465266 74.3488835611292 0  236.0631303447202 117.0934887033495 0  255.2860706566257 162.4962097513293 0  210.288597171716 124.9641969758756 0  200.5494091764226 101.6938959209836 0  221.0463142825589 155.4583368622661 0  213.2458552033902 137.0182369603261 0  202.5715495252679 76.72215432732189 0  203.3954031521662 88.63888283314805 0  204.2685850489914 91.3771816532193 0  227.6002395557545 108.6285485308707 0  203.628067965887 73.80056467640915 0  205.5882193517793 76.19298591547215 0  219.3893731065793 59.36381842571261 0  222.6962970705901 100.2685345181304 0  206.2147206748961 89.23684943534887 0  224.5717795045128 68.90112930058935 0  207.1505150846513 91.97409496002633 0  206.6973804802006 73.20614062920998 0  209.0198262461606 75.84435446174592 0  204.6828826698789 70.78585325419728 0  244.5505030757118 140.1958289722003 0  241.2713205316759 139.2760911012237 0  242.0887623359319 142.523888210035 0  238.8201809392432 141.5810446831215 0  239.6254755922404 144.8663288044098 0  238.0282380951174 138.3361101328854 0  235.5650201404635 140.6403522599634 0  234.7868703265066 137.3765638391416 0  232.3671992655526 139.7040340002533 0  231.5735594060041 136.4371341666237 0  203.6025996895933 45.13245413868078 0  209.0094500142995 89.77916893533093 0  234.0048963149566 134.0619286436701 0  230.7388584519252 133.0932019642386 0  256.0202376970822 152.4353991158102 0  233.1239077827668 142.9168616681826 0  229.9476468053365 142.0041066209365 0  207.8316386186595 70.1760146256688 0  205.8080150778045 67.77328389450008 0  210.1255397865818 92.58553759086743 0  249.9530000513888 175.7831884132348 0  230.7520925362455 145.2114145624654 0  227.5614746466729 144.2879078440436 0  226.855634298717 141.1029513419209 0  221.109901317114 86.07738557802102 0  221.3898452401857 82.41394785245797 0  233.1906280944642 130.7538222264552 0  229.849944657733 129.8156996791429 0  227.4514186000422 132.1240250470279 0  226.5693510741891 128.7503487535618 0  208.0732626511005 94.86195720558288 0  211.0579654481564 95.54875779444082 0  209.0041892644107 97.86214677695602 0  216.7276956906574 41.503774594868 0  224.4517166451922 143.3327513982825 0  222.7890579510523 161.0597281586643 0  209.0698801997012 67.10609773523754 0  206.9141710660066 64.58868367949086 0  211.5265666272545 70.15591236789595 0  218.2872405225432 83.97244872861398 0  207.7311279855657 86.71297189445447 0  242.9081583239214 145.8040728889821 0  240.4621480942806 148.1601866910276 0  243.7562457682554 149.0907552716282 0  241.3145175595932 151.4726760652338 0  244.57940289053 152.3666461928266 0  242.1615185950008 154.7794567484269 0  238.8718789959482 153.837018554675 0  239.7122407256576 157.1523621063041 0  236.4289375384117 156.2070529629317 0  237.2412111497984 159.5248795948406 0  240.5638486223294 160.4901132255754 0  238.1023772270576 162.8725976094984 0  241.406699334305 163.8359650846702 0  238.9630278156374 166.2175426435888 0  234.7361516891476 161.8928266488476 0  213.124654294145 93.56046727196781 0  212.0434836741439 98.5447165103807 0  209.9504013355788 100.9044854564887 0  213.0958854424699 101.5871381629478 0  210.9302285957408 103.9580876602797 0  214.0010858928389 104.7096094485587 0  211.9141605791952 107.0615795921763 0  214.9890206858068 107.8102538193681 0  212.9269247290344 110.1901972673309 0  216.0786784436673 110.8721476340726 0  209.7617142319936 109.4041944495815 0  213.932211035267 113.2627867337288 0  217.0813395790477 113.941453344218 0  218.441750941724 80.63655841437071 0  242.2412500877879 167.1781012200828 0  229.2280100589433 126.5393356137107 0  225.9203624138538 125.4446005931909 0  223.3571983269889 127.7265579015054 0  222.6136526124249 124.535547281476 0  225.3056527306165 122.1016033222114 0  220.3254947810712 126.7409252226328 0  201.0777098578984 116.3274181811247 0  219.7857338015156 123.3740225787907 0  228.3312248450329 147.5116593523427 0  223.7608055035202 140.2236832285434 0  221.3299816979287 142.3937311365609 0  245.4512147769152 155.7068319139237 0  214.9140854911084 116.3016229600955 0  241.4261562479406 177.9745543740275 0  202.8157779574545 68.56000166221941 0  240.0703975438099 175.788326095019 0  222.1092806876692 145.4935485219417 0  220.9446699547174 129.9892194059113 0  217.7131509102484 129.0121441451285 0  231.966766611991 173.6290727753235 0  244.7035101352062 164.8150950666352 0  215.4589412711449 82.35047797613059 0  218.5358717759109 108.3057574313637 0  210.0910095413371 63.89870618133642 0  207.8879031726656 61.27101234314142 0  219.5945508510063 49.26517889117938 0  204.4640092132492 79.16637174968085 0  219.054165325738 63.24726086273807 0  245.5364828646638 168.1932520030346 0  204.1722248369768 62.21708558088665 0  205.6821920907016 58.50393459316535 0  209.6155639374877 57.86856426712311 0  196.5553895895766 69.81481204083099 0  235.6123608690412 152.8874163252039 0  233.2157615582107 155.2532908181879 0  240.6837858645011 122.4172544901715 0  210.8141135626509 127.8682271622992 0  245.3812170314571 182.2522052029404 0  206.9456715292139 54.99559933887414 0  210.5075513436263 54.0697256538542 0  207.9169085133073 103.1765167571325 0  223.2431750051092 164.070583057325 0  225.7483443677002 162.1151723759482 0  206.0378951001477 96.94148998994152 0  242.6796154699829 175.6597339900036 0  214.6838055972238 146.7252062992904 0  211.9990465678071 115.5576487680909 0  221.4613603554043 78.78973924681317 0  218.3291154698718 77.0769598533563 0  200.3358005877804 107.1120377748188 0  247.4072167499741 149.4171847419639 0  211.6397508657857 39.55684201930068 0  226.8243927196049 72.17619845696734 0  215.354291780634 85.55308818793476 0  236.5600255652378 131.6759521500912 0  226.0129792461303 165.2837912620818 0  218.060680211082 117.0067370946569 0  220.2726382852709 114.6051380114157 0  212.8793579154693 118.3711453694285 0  215.022609143906 99.35520341734289 0  203.0459334752391 85.71272568041367 0  202.8915272398735 55.67723839797077 0  220.5465456567309 139.1747891305704 0  239.6921265383864 169.3260213165692 0  236.6712881821608 168.5826958099534 0  218.0125893802946 141.5012621699478 0  201.3193403438535 110.3399099823547 0  203.3799271438462 107.9393487975089 0  248.1978655115356 165.7601936670729 0  248.8804221900089 169.2105116441819 0  237.1867529048816 147.1869371163321 0  236.7369473929319 176.2832209442509 0  247.3010859001464 162.3677476585113 0  204.3727171343656 110.8209535355564 0  235.7766571132668 128.3537547116865 0  217.8932394506906 150
[...]
<PointData  Vectors="f_12"> 
<DataArray  type="Float64"  Name="f_12"  NumberOfComponents="3" format="ascii">6.4456044278518498e-01 7.4205503276950369e-01 1.3708839991092728e-01  6.4456044279244251e-01 7.4205503273986173e-01 1.3708839996329383e-01  6.4456044255816292e-01 7.4205503293370689e-01 1.3708839915296325e-01  6.4456044388912359e-01 7.4205503526265304e-01 1.3708839979640625e-01  6.4456040797877279e-01 7.4205502181457106e-01 1.3708832534756335e-01  6.4456094282859788e-01 7.4205563566726263e-01 1.3708895213334107e-01  6.4456159996484952e-01 7.4205683181606530e-01 1.3708920210370221e-01  6.4454069410822468e-01 7.4205951972790696e-01 1.3703311642849528e-01  6.4523484098399897e-01 7.4346953995167164e-01 1.3713399866328868e-01  6.4818690155802805e-01 7.4730391545067854e-01 1.4004393277945912e-01  6.9533494371714322e-01 7.5537841161038233e-01 2.4033954968700771e-01  7.2019454612200928e-01 7.0874248871126577e-01 3.6116793889019566e-01  6.8224419452518570e-01 3.9896267404528324e-01 6.7734996629775379e-01  6.5092953325627079e-01 6.1657994266734428e-01 3.1895630037763228e-01  6.2906689038740593e-01 6.9735724710554481e-01 1.5054809960402801e-01  6.1188288254238299e-01 6.8224345070506276e-01 1.1762960857886254e-01  6.1597990620041831e-01 6.8942591316885082e-01 1.2145477434468897e-01  6.2321446470865705e-01 6.9947340901129618e-01 1.3082124026784800e-01  5.8933334108502500e-01 6.3042871441285586e-01 1.0441152428480013e-01  6.0883434964396554e-01 6.6855458620421193e-01 1.2368341908583329e-01  6.0061873457300907e-01 6.5320896043540488e-01 1.1547639769942220e-01  5.9462165908944109e-01 6.4160131200964965e-01 1.0957111664964472e-01  6.4967984512086707e-01 7.2970875203430130e-01 1.6689389916514233e-01  5.7424422776211892e-01 5.8340298672735724e-01 1.0215978547512027e-01  6.0563559201885919e-01 6.5589054325238838e-01 1.2828841646110745e-01  5.7178601497933690e-01 5.7819223307360390e-01 9.9302620500136426e-02  5.6661780414941398e-01 5.6331362992016798e-01 9.6067334080701700e-02  5.5778880869780656e-01 5.3903027811435167e-01 8.9041193905944879e-02  5.5814893277373478e-01 5.3993618504661323e-01 8.9380597455738300e-02  5.6099175708017368e-01 5.4727893367072655e-01 9.2095915729921110e-02  5.4809467664262268e-01 5.0730421032254769e-01 8.4188939403663593e-02  5.4646771174493536e-01 5.0109624739447567e-01 8.3935761612283569e-02  5.4889162914493772e-01 5.0861228449135432e-01 8.5648336011129075e-02  5.5058079087176470e-01 5.1388081133605135e-01 8.6771839693929986e-02  5.5124107262235567e-01 5.1586243426707035e-01 8.7264670921017640e-02  5.4828127613505440e-01 5.0601640228101541e-01 8.5789069633409473e-02  5.4586025188921616e-01 4.9882932659982909e-01 8.3816449258892797e-02  5.7237219627250013e-01 5.7785045946203972e-01 1.0172006718588343e-01  5.9808600626987241e-01 6.4029662044458968e-01 1.2107454198620543e-01  6.1315782217436388e-01 6.7288840464313260e-01 1.3199575343743974e-01  6.5216033585655375e-01 7.3799105320370084e-01 1.6250019373930055e-01  6.5146315308321723e-01 7.3706398458874089e-01 1.6182900456138480e-01  6.3036012541551856e-01 7.0425726553646717e-01 1.4517853177979495e-01  6.3673572179857840e-01 7.1461022594323054e-01 1.5016768879822062e-01  6.5769241726317007e-01 7.4626241480654787e-01 1.6580179284030461e-01  6.5968093074662437e-01 7.5041351802533818e-01 1.6534724204189152e-01  6.5475291656272505e-01 7.4616668620369531e-01 1.5860543862109755e-01  6.5326378799500062e-01 7.4432143383991978e-01 1.5718715276494941e-01  6.4746856633069638e-01 7.3715445503776067e-01 1.5140712674899620e-01  6.4313004939720697e-01 7.3103245700875918e-01 1.4774641838106753e-01  6.4000737709682798e-01 7.2373789002697253e-01 1.4858136580814657e-01  6.3486200268379434e-01 7.0594532675272026e-01 1.5678601545557622e-01  6.2576112468819212e-01 6.7371270066293232e-01 1.6986388231527674e-01  6.1501130640818558e-01 6.3955061780229616e-01 1.7716415459842888e-01  6.0305420573530388e-01 6.0113004577349671e-01 1.8183822037916211e-01  5.8693896457797068e-01 5.3574686155345064e-01 1.9660693598643944e-01  6.1334775351222415e-01 4.6687951526648558e-01 3.6844604585890989e-01  6.8603741130149543e-01 4.7217932096770848e-01 5.9711347647903124e-01  7.0630181982463192e-01 5.1760331687677330e-01 5.9645142223900427e-01  7.0855885546281694e-01 7.1666267334987332e-01 3.2581917632727753e-01  6.4866949344610814e-01 7.4877596699756777e-01 1.3965146144366000e-01  6.4512635412080677e-01 7.4391391310786392e-01 1.3630607708142617e-01  6.4537913895669596e-01 7.4405818186271788e-01 1.3678304082665260e-01  6.4481970727857119e-01 7.4286713480524436e-01 1.3678137939747287e-01  6.4451778688898986e-01 7.4204535367263347e-01 1.3699132449583418e-01  6.4456162980158593e-01 7.4205380628514306e-01 1.3709285438912386e-01  6.4456078196450850e-01 7.4205569118384151e-01 1.3708848064481333e-01  6.4456050147554855e-01 7.4205524979024196e-01 1.3708829367238393e-01  6.4456044416097480e-01 7.4205510474773606e-01 1.3708831945526553e-01  6.4456042670281732e-01 7.4205501372529903e-01 1.3708838165552648e-01  6.4456042032349492e-01 7.4205499340293157e-01 1.3708838930147074e-01  6.4456044452418726e-01 7.4205503227262459e-01 1.3708840485355370e-01  6.4456044298920878e-01 7.4205503353627245e-01 1.3708839953847696e-01  6.4456044264376677e-01 7.4205503272238960e-01 1.3708839961004132e-01  6.4456044346951458e-01 7.4205503070147094e-01 1.3708840401785244e-01  6.4456044276859026e-01 7.4205503284506624e-01 1.3708839978191756e-01  6.4456044277092706e-01 7.4205503275170437e-01 1.3708839989555066e-01  6.4456044278370905e-01 7.4205503276088469e-01 1.3708839991713670e-01  6.4456044278600677e-01 7.4205503277029972e-01 1.3708839991207786e-01  6.4456044278535840e-01 7.4205503276969720e-01 1.3708839991114061e-01  6.4456044278537650e-01 7.4205503276970319e-01 1.3708839991117888e-01  6.4456044278538238e-01 7.4205503276971807e-01 1.3708839991117658e-01  6.4456044278539826e-01 7.4205503276976326e-01 1.3708839991116559e-01  6.4456044278559776e-01 7.4205503277010498e-01 1.3708839991127750e-01  6.4456044278643954e-01 7.4205503277171780e-01 1.3708839991153973e-01  6.4456044279045599e-01 7.4205503277407348e-01 1.3708839991891431e-01  6.4456044274829349e-01 7.4205503264871397e-01 1.3708839995736405e-01  6.4456044262489876e-01 7.4205503257751193e-01 1.3708839972983769e-01  6.4456044564706838e-01 7.4205503128686490e-01 1.3708840878558845e-01  6.4456043066544277e-01 7.4205500502123123e-01 1.3708840171945444e-01  6.4456053822214321e-01 7.4205532688455922e-01 1.3708829584589610e-01  6.4456146238005596e-01 7.4205631623644175e-01 1.3708946186852014e-01  6.4455927567103022e-01 7.4204956929337262e-01 1.3709189954825293e-01  6.4466253844386356e-01 7.4245324874224627e-01 1.3687757806082326e-01  6.6395257994370949e-01 7.5921133487424242e-01 1.6385933552120238e-01  7.1866926265222331e-01 5.8228119481924823e-01 5.4033823311864271e-01  6.4356515892309341e-01 3.2458402669853464e-01 6.3365385439797584e-01  6.3036893389929471e-01 3.6386251100240569e-01 5.4612676491064538e-01  6.4146953906341275e-01 4.8739928853797471e-01 4.4758028586480458e-01  6.4530289115208428e-01 6.8348081186326126e-01 2.1557277316215659e-01  6.1395766057734780e-01 6.8455692692751735e-01 1.2123294245426949e-01  6.2208875733134383e-01 6.9912109881925677e-01 1.2796176798807110e-01  6.0967577910347159e-01 6.7320826503964759e-01 1.2110692786367724e-01  5.9458491561410898e-01 6.4200284981134581e-01 1.0878507045559190e-01  5.9154127490924224e-01 6.3501934404877802e-01 1.0656086294624742e-01  5.9834260267924000e-01 6.4883065200781265e-01 1.1324133054133846e-01  6.3560869929286168e-01 7.1153376567891979e-01 1.5153964330741559e-01  6.4273004123372068e-01 7.1896748739519878e-01 1.6177042240300615e-01  6.2443435523647073e-01 6.9007728696318793e-01 1.4515735532435808e-01  5.5204606564444358e-01 5.1984684709243156e-01 8.6600938123222074e-02  5.4607732609759840e-01 5.0051520294488394e-01 8.3170871221057124e-02  5.5022225266539038e-01 5.1234025167138164e-01 8.6880364179686753e-02  5.4604916559911931e-01 5.0064755898140412e-01 8.3078231041025755e-02  5.5481904756116085e-01 5.2858632579317821e-01 8.8672144995611352e-02  6.1974182642774400e-01 6.8534448239084733e-01 1.3699148309258802e-01  6.5370382691836038e-01 7.4029906925738009e-01 1.6344840176672684e-01  6.5961289740594853e-01 7.4944030491733415e-01 1.6643600697774927e-01  6.5723973672893832e-01 7.4864010906096590e-01 1.6161889974780741e-01  6.4450369549758946e-01 7.3314891619280009e-01 1.4870872345994787e-01  6.4189583102071135e-01 7.2857304322742378e-01 1.4755810653548448e-01  6.3759695101918479e-01 7.1593859197968535e-01 1.5182756757300203e-01  5.9172476410718522e-01 5.5965642382406777e-01 1.8825873272504501e-01  5.9391602657760512e-01 5.2266321699966989e-01 2.3596931232293319e-01  6.4201510885223312e-01 4.1225167560249382e-01 5.3026924279364107e-01  7.1611316488670973e-01 5.9769380201271727e-01 5.1203112097328440e-01  6.7130358021345582e-01 7.6089824217845914e-01 1.7891885747179748e-01  6.4454879081639072e-01 7.4203030773691170e-01 1.3708809036292496e-01  6.4456044046269478e-01 7.4205502381081445e-01 1.3708840444479298e-01  6.4456044265202339e-01 7.4205503266443296e-01 1.3708839969753409e-01  6.5502425767968542e-01 7.5363904693243133e-01 1.4934431138895757e-01  6.5918314318378879e-01 7.4927643852354486e-01 1.6560024399110149e-01  6.3501040300415856e-01 3.2945071730396985e-01 5.9858638262160646e-01  6.4456043209273206e-01 7.4205501178295585e-01 1.3708839748798665e-01  6.5797652491769809e-01 4.1267246504095118e-01 5.8364144094412207e-01  6.3882684640985921e-01 7.1999829839864060e-01 1.5009196002856443e-01  6.4455132982461183e-01 7.4203701739258754e-01 1.3708658032845811e-01  6.8659899180819384e-01 7.5211785153207067e-01 2.2624036129404804e-01  6.5897601389724636e-01 7.4961023940777960e-01 1.6466502195421259e-01  6.5043336825331122e-01 7.4082060795785953e-01 1.5441722039475192e-01  6.4692194580936102e-01 7.3636544296074680e-01 1.5097189718470108e-01  6.5025068653408746e-01 6.5041438796589035e-01 2.7307856833595179e-01  6.5755523959691531e-01 7.4754302414353135e-01 1.6384148368441817e-01  6.5733354522224996e-01 7.4763929722897970e-01 1.6316975033454420e-01  6.4703240863548428e-01 7.2547754653042507e-01 1.6519251112311203e-01  6.2058509452992183e-01 6.9343634783796904e-01 1.3047672954024550e-01  6.4852282670722794e-01 7.3823822100974679e-01 1.5274676047208813e-01  6.2555141868103026e-01 6.9710512381144096e-01 1.4025263765867915e-01  6.4499018368091932e-01 7.3362812548105250e-01 1.4932360797691388e-01  6.5547346512450699e-01 7.4507686485823221e-01 1.6185701149696069e-01  6.5464616762881178e-01 7.4424299315651177e-01 1.6084275832983319e-01  6.5397324176616123e-01 7.4267279904581351e-01 1.6114812518586891e-01  6.4700861737740833e-01 7.4592590229827038e-01 1.3870957278756188e-01  6.5078049613533995e-01 7.4985866111488542e-01 1.4345124912899498e-01  6.4581278052307955e-01 7.4430320517376858e-01 1.3760933790243327e-01  6.4804860241293127e-01 7.4699344216847252e-01 1.4005483781035846e-01  6.4512007223597423e-01 7.4321892120508848e-01 1.3713404650314026e-01  6.5723465221852151e-01 7.5422896318808530e-01 1.5402308437998286e-01  6.5213267073197578e-01 7.5073132762426276e-01 1.4575507729052348e-01  6.6669268321083397e-01 7.5679607248190794e-01 1.7362410154442218e-01  6.5819923721420015e-01 7.5452626290522751e-01 1.5600539587714635e-01  6.7780819581392870e-01 7.5418297584260008e-01 2.0333435512690548e-01  5.4704525238088464e-01 5.0328656402173866e-01 8.4143273092354282e-02  6.4571208323625040e-01 7.3437614144185126e-01 1.5026021366757711e-01  6.9018023198304879e-01 7.4204619082870849e-01 2.4868009193938187e-01  7.0200598969527972e-01 7.1404999322274054e-01 3.1538138677732369e-01  6.4456083658088092e-01 7.4205547525711302e-01 1.3708887314504273e-01  6.4850517375414107e-01 7.4742976807337769e-01 1.4067743837862681e-01  6.5181939196778316e-01 7.5050463347007879e-01 1.4525122560758683e-01  6.5235650714564675e-01 7.4059723666326072e-01 1.5974665044106778e-01  6.4853290677623365e-01 7.3474221484768398e-01 1.5730520556819685e-01  6.4138169310518633e-01 7.2854451543341536e-01 1.4605560623707681e-01  6.4456044272913793e-01 7.4205503274404050e-01 1.3708839979953807e-01  6.4622752955343765e-01 7.4480746402610887e-01 1.3805912048620447e-01  6.4779072338894528e-01 7.4669930234458337e-01 1.3975361186302843e-01  6.5618572274460873e-01 7.5356175118029234e-01 1.5228394191016204e-01  6.2693571894618005e-01 7.0647972339556753e-01 1.3306921223431248e-01  6.2796171426538960e-01 7.0681461246598576e-01 1.3556115179176620e-01  7.0981282849624783e-01 6.7069961146106827e-01 3.9528598519186758e-01  7.1128005010365380e-01 6.0612744657154061e-01 4.8988841972738506e-01  7.0936027341561669e-01 6.7304186108077324e-01 3.9103575945970021e-01  7.0505216339164922e-01 5.3456065688840626e-01 5.7149905452421590e-01  6.4155460375233109e-01 7.2870104320899920e-01 1.4636792630696166e-01  6.3743384101350298e-01 7.2274405284367615e-01 1.4259211563703639e-01  6.3858546198789412e-01 7.2367414108704142e-01 1.4465329924108594e-01  5.5549643438476293e-01 5.3026952225894652e-01 8.8987109623679950e-02  6.5009821674294088e-01 7.4905864285220181e-01 1.4271172275548272e-01  6.4456108502561249e-01 7.4205558522552317e-01 1.3708936992414600e-01  6.4868668160031340e-01 7.3453357092489113e-01 1.5802572582385102e-01  6.4100313627505423e-01 7.2252375348061249e-01 1.5264645237612354e-01  6.5147868069092174e-01 7.3903216985210929e-01 1.5954867213344123e-01  6.3481030753901890e-01 7.1790454247428070e-01 1.4127381356819776e-01  6.5022750623852887e-01 7.4002909565311525e-01 1.5487231020752990e-01  6.4466114867252888e-01 7.4239690500457090e-01 1.3694009690354550e-01  6.4457786993643684e-01 7.4217563822647958e-01 1.3698980998893776e-01  6.4454422972223580e-01 7.4205236445920963e-01 1.3705040199424137e-01  6.4455026017599593e-01 7.4204247108334787e-01 1.3707743790000196e-01  6.4455704627669685e-01 7.4204591827503996e-01 1.3709057329440202e-01  6.4455987479808119e-01 7.4205150513448703e-01 1.3709112986383648e-01  6.4455581795582895e-01 7.4204525407109123e-01 1.3708825067777947e-01  6.4456075780767186e-01 7.4205433031897183e-01 1.3709002414986607e-01  6.4455937266826002e-01 7.4205068294476706e-01 1.3709083122621998e-01  6.4456082614246879e-01 7.4205533161070458e-01 1.3708901587665315e-01  6.4456063753950277e-01 7.4205538965925510e-01 1.3708847234134636e-01  6.4456049554084427e-01 7.4205519961778765e-01 1.3708833773365731e-01  6.4456043413351938e-01 7.4205506780634145e-01 1.3708833744110646e-01  6.4456042817870030e-01 7.4205502464649931e-01 1.3708837271793489e-01  6.4456064023609172e-01 7.4205538349835387e-01 1.3708848614785749e-01  6.3543415602782938e-01 7.2000241189771264e-01 1.4044604193485993e-01  6.3447130725040646e-01 7.1749365886747296e-01 1.4098311150245585e-01  6.3673824608690299e-01 7.1854162441412950e-01 1.4608946398281819e-01  6.3357917496740324e-01 7.1315427370462792e-01 1.4399390795862649e-01  6.3675245138487913e-01 7.1201424560602455e-01 1.5448112206755724e-01  6.3599102960891274e-01 7.0796965131947420e-01 1.5746003735053501e-01  6.3875687418956340e-01 6.9858868891409365e-01 1.7736969436281838e-01  6.4067616774913028e-01 6.9293656988612529e-01 1.9014925580539940e-01  6.4088321350738031e-01 6.6651587971086768e-01 2.2463959236173087e-01  6.4466168230947296e-01 6.5389582561506021e-01 2.5210273141972367e-01  6.3716856926344245e-01 6.7690014815884492e-01 2.0035482128510132e-01  6.3964730800653835e-01 6.0310845061062857e-01 3.0079119567474644e-01  6.4296773339160396e-01 5.7647750587777347e-01 3.4446800003222688e-01  6.3606610712929179e-01 7.1888827389334342e-01 1.4355599952105916e-01  6.4456043498441373e-01 7.4205501886371883e-01 1.3708839646692239e-01  6.9188957178788968e-01 4.6034664821983490e-01 6.3096197751717176e-01  6.7403177338373166e-01 3.9943652474686508e-01 6.5137614092495966e-01  6.9380342495001357e-01 4.7276789880592979e-01 6.2092526859967578e-01  6.5965772412375479e-01 3.6817131544545090e-01 6.4113334725547200e-01  6.4268915371328028e-01 3.4488486744079705e-01 6.0953941330592887e-01  6.8079503516010120e-01 4.2594735086726115e-01 6.4080736216061973e-01  6.0046516699498476e-01 5.8612505022433425e-01 1.8979188064379293e-01  6.4660054439733594e-01 3.5407229203709256e-01 6.1290363360673183e-01  6.4509270635270854e-01 7.4317758862651961e-01 1.3711267682871270e-01  6.6134208335091493e-01 7.5601053637017346e-01 1.6177422289968479e-01  6.5310582821910168e-01 7.5163267562275693e-01 1.4706744400659200e-01  6.4456103149734889e-01 7.4205496963287532e-01 1.3708996092917441e-01  6.3362683169012457e-01 5.0845364956839634e-01 3.9527528150481167e-01  6.4456044275772495e-01 7.4205503277919604e-01 1.3708839983063253e-01  6.5016725765460381e-01 7.3680096451589461e-01 1.5885297500770970e-01  6.4456044285699232e-01 7.4205503303445763e-01 1.3708839978580686e-01  6.4678934047128633e-01 7.4555920639719209e-01 1.3858560609950774e-01  7.0790186059702997e-01 5.6598981721773878e-01 5.3687694217055715e-01  7.0108442184792830e-01 5.1859635418290817e-01 5.8243910544818567e-01  6.4456044364931275e-01 7.4205503284632990e-01 1.3708840198967706e-01  6.4456042608632691e-01 7.4205501887972714e-01 1.3708837417775718e-01  6.4260136920975175e-01 7.2871367042322122e-01 1.4909036333710576e-01  6.4324095753032162e-01 6.8788650009182972e-01 2.0403335161131372e-01  6.4347638372542959e-01 7.2519561667743215e-01 1.5599056447138293e-01  6.3055413360504786e-01 7.0388781704985204e-01 1.4639847637176975e-01  5.9719333266924191e-01 6.3696832356624122e-01 1.2160214425137028e-01  6.5769866088529949e-01 7.4843187699254721e-01 1.6302974627772895e-01  6.5057922606879071e-01 7.3187423161281084e-01 1.6642410847688446e-01  6.4456044163239579e-01 7.4205502645869525e-01 1.3708840431801933e-01  6.2805218160675880e-01 7.0056206322147641e-01 1.4329105471705195e-01  6.1155606038261323e-01 6.6825562256469329e-01 1.3214321184842723e-01  6.1949605089597393e-01 6.8233258345295900e-01 1.3983394479162997e-01  6.5475539068374711e-01 7.4208995169932823e-01 1.6377337810744513e-01  6.4454926793738376e-01 7.4204376875323763e-01 1.3707337845411766e-01  6.4455564540826604e-01 7.4204454462757918e-01 1.3708865110322357e-01  7.0186287742063092e-01 4.8324008240851263e-01 6.2964416799641532e-01  6.9265993325598074e-01 4.8785761055287230e-01 5.9823157632749635e-01  6.4456044278669589e-01 7.4205503276818252e-01 1.3708839991624633e-01  5.9472537592259223e-01 6.3130233979769679e-01 1.2008541007570617e-01  6.0140185118939260e-01 6.4504498500448981e-01 1.2624137124432994e-01  6.3771932329709480e-01 7.1563187319238253e-01 1.5258390092947449e-01  6.4456057679255852e-01 7.4205536366036995e-01 1.3708834988106683e-01  6.4456078573071718e-01 7.4205552871211233e-01 1.3708868221176965e-01  6.4133510910744196e-01 7.2789376250647519e-01 1.4684375808405759e-01  6.4456044281161406e-01 7.4205503298120301e-01 1.3708839973324974e-01  6.4586490716572131e-01 7.4462119223188228e-01 1.3735058613700765e-01  6.3009963648791556e-01 5.4596913241866918e-01 3.3870739896030427e-01  6.2707267915466558e-01 7.0414686533261461e-01 1.3624025741456280e-01  6.3718604391947753e-01 7.1968357062578781e-01 1.4570326977233805e-01  6.3214911633119741e-01 6.9459792502214135e-01 1.6308895938912235e-01  6.4454971016176943e-01 7.4203861465124121e-01 1.3708062369709345e-01  5.4693821666779807e-01 5.0312441889044313e-01 8.3854982131739447e-02  6.0808496615261254e-01 6.6800160922858309e-01 1.2215540528096427e-01  6.4008656692586108e-01 7.2581905313627948e-01 1.4590262802076126e-01  7.0072371334212080e-01 7.2102525446381072e-01 3.0242618364072554e-01  6.4456046832628877e-01 7.4205515832350843e-01 1.3708831778769096e-01  6.3540552139846951e-01 4.7113315491487501e-01 4.4502778090060024e-01  6.4418748153144800e-01 5.4477971184330376e-01 3.8740277161059372e-01  6.2540415954523254e-01 4.5670620157062414e-01 4.2549287710388195e-01  6.2959258645708971e-01 7.0978914256974035e-01 1.3675173347787922e-01  6.5378038524165294e-01 7.4473183152908662e-01 1.5796346052813395e-01  5.8791162994896007e-01 6.1635400380429384e-01 1.1402346462748576e-01  6.6819414779