<?xml version="1.0"?>
<VTKFile type="UnstructuredGrid"  version="0.1"  >
<UnstructuredGrid>
<Piece  NumberOfPoints="600" NumberOfCells="1069">
<Points>
<DataArray  type="Float64"  NumberOfComponents="3"  format="ascii">239.8 188 0  250.2 180 0  258.2 172.4 0  257 169.4 0  259.9 157.4 0  258.7 150.3 0  261 143.5 0  251.7 144.4 0  250 138.7 0  247 138.1 0  245.2 130.8 0  247.3 126.4 0  242.7 118.6 0  231.2 107.7 0  226 102.4 0  226.5 93.90000000000001 0  224.5 91.19999999999999 0  224.5 84.09999999999999 0  234.5 73.80000000000001 0  228.4 68.90000000000001 0  230 70 0  233.4 68 0  222.7 61.5 0  220.6 45.5 0  223.4 49.40000000000001 0  224 47 0  221.8 43.09999999999999 0  221 38.40000000000001 0  219.5 38.5 0  219.4 41.69999999999999 0  217.1 36.90000000000001 0  209.7 36 0  209.5 31.69999999999999 0  205.1 29.90000000000001 0  201.5 30.40000000000001 0  199.2 38.69999999999999 0  201.8 41.40000000000001 0  194.8 53.80000000000001 0  196.1 57.69999999999999 0  193 59 0  191.4 66.09999999999999 0  193.5 66.5 0  194.1 64.40000000000001 0  195.6 64.69999999999999 0  195.4 72.40000000000001 0  199.5 77.30000000000001 0  197.7 86.90000000000001 0  200.6 87.5 0  201.5 91 0  198 94.80000000000001 0  198.6 100 0  197.3 105.4 0  198 109.5 0  197 112.7 0  198.3 116.1 0  201.3 122 0  207.2 121 0  208.1 126.7 0  205.6 127.9 0  209.1 134.9 0  210.9 144.4 0  210.1 147.9 0  213 148.4 0  215.4 149.3 0  215.1 152.8 0  219.9 159.7 0  220.3 163.2 0  218.7 164.9 0  219.9 166.7 0  221.9 169.7 0  220 170.3 0  224.9 174.7 0  229.8 177.4 0  229.7 181 0  228 172.9 0  239 178 0  240.4 180 0  239 181.5 0  241.2 185.9 0  242.95 187.99 0  241.113414658978 187.995830429654 0  242.142964269982 187.9925620181905 0  243.6619187087475 187.2054164851183 0  244.631513060971 186.1368566403919 0  245.9520480703466 184.6815359886801 0  247.7505449816197 182.6994683581873 0  252.8666666668011 177.466666666539 0  255.5333333336077 174.9333333330727 0  257.9666666666661 165.4000000000025 0  258.9333333333339 161.3999999999974 0  259.3000000000018 153.8500000000108 0  259.849999999995 146.9000000000149 0  256.350000000011 143.9499999999989 0  250.8500000000015 141.5500000000051 0  246.1000000000042 134.450000000017 0  245.0000000000049 122.5000000000082 0  239.8250000000041 115.875000000004 0  236.9500000000083 113.1500000000079 0  234.0750000000041 110.4250000000039 0  228.6000000000041 105.0500000000042 0  226.25 98.15000000000002 0  224.5 87.65000000001388 0  227.8333333333301 80.66666666667 0  231.1666666666644 77.23333333333571 0  232.2500000000014 71.90000000000116 0  230.8999999999995 68.45000000000009 0  225.5500000000108 65.20000000001409 0  222.9333333333329 57.46666666667507 0  223.1666666666663 53.43333333333877 0  218.2500000000016 39.30000000000339 0  213.4000000000277 36.45000000000337 0  200.3500000000025 34.54999999999097 0  199.4666666666726 45.53333333332282 0  197.1333333333385 49.66666666665756 0  193.5499999999978 61.6999999999891 0  193.3999999999962 69.24999999999406 0  197.4499999999954 74.84999999999454 0  198.6000000000007 82.09999999999631 0  199.7500000000014 92.8999999999985 0  198.2999999999997 97.39999999999726 0  197.950000000001 102.699999999996 0  199.7999999999944 119.049999999989 0  204.2499999999946 121.5000000000009 0  207.6499999999987 123.8499999999919 0  207.35 131.4 0  209.9999999999998 139.649999999999 0  217.4999999999938 156.249999999991 0  223.4 172.2 0  234.349999999995 179.5000000000016 0  243.6879031604435 137.0140197666175 0  200.5383884465266 74.3488835611292 0  236.0631303447202 117.0934887033495 0  255.2860706566257 162.4962097513293 0  210.288597171716 124.9641969758756 0  200.5494091764226 101.6938959209836 0  221.0463142825589 155.4583368622661 0  213.2458552033902 137.0182369603261 0  202.5715495252679 76.72215432732189 0  203.3954031521662 88.63888283314805 0  204.2685850489914 91.3771816532193 0  227.6002395557545 108.6285485308707 0  203.628067965887 73.80056467640915 0  205.5882193517793 76.19298591547215 0  219.3893731065793 59.36381842571261 0  222.6962970705901 100.2685345181304 0  206.2147206748961 89.23684943534887 0  224.5717795045128 68.90112930058935 0  207.1505150846513 91.97409496002633 0  206.6973804802006 73.20614062920998 0  209.0198262461606 75.84435446174592 0  204.6828826698789 70.78585325419728 0  244.5505030757118 140.1958289722003 0  241.2713205316759 139.2760911012237 0  242.0887623359319 142.523888210035 0  238.8201809392432 141.5810446831215 0  239.6254755922404 144.8663288044098 0  238.0282380951174 138.3361101328854 0  235.5650201404635 140.6403522599634 0  234.7868703265066 137.3765638391416 0  232.3671992655526 139.7040340002533 0  231.5735594060041 136.4371341666237 0  203.6025996895933 45.13245413868078 0  209.0094500142995 89.77916893533093 0  234.0048963149566 134.0619286436701 0  230.7388584519252 133.0932019642386 0  256.0202376970822 152.4353991158102 0  233.1239077827668 142.9168616681826 0  229.9476468053365 142.0041066209365 0  207.8316386186595 70.1760146256688 0  205.8080150778045 67.77328389450008 0  210.1255397865818 92.58553759086743 0  249.9530000513888 175.7831884132348 0  230.7520925362455 145.2114145624654 0  227.5614746466729 144.2879078440436 0  226.855634298717 141.1029513419209 0  221.109901317114 86.07738557802102 0  221.3898452401857 82.41394785245797 0  233.1906280944642 130.7538222264552 0  229.849944657733 129.8156996791429 0  227.4514186000422 132.1240250470279 0  226.5693510741891 128.7503487535618 0  208.0732626511005 94.86195720558288 0  211.0579654481564 95.54875779444082 0  209.0041892644107 97.86214677695602 0  216.7276956906574 41.503774594868 0  224.4517166451922 143.3327513982825 0  222.7890579510523 161.0597281586643 0  209.0698801997012 67.10609773523754 0  206.9141710660066 64.58868367949086 0  211.5265666272545 70.15591236789595 0  218.2872405225432 83.97244872861398 0  207.7311279855657 86.71297189445447 0  242.9081583239214 145.8040728889821 0  240.4621480942806 148.1601866910276 0  243.7562457682554 149.0907552716282 0  241.3145175595932 151.4726760652338 0  244.57940289053 152.3666461928266 0  242.1615185950008 154.7794567484269 0  238.8718789959482 153.837018554675 0  239.7122407256576 157.1523621063041 0  236.4289375384117 156.2070529629317 0  237.2412111497984 159.5248795948406 0  240.5638486223294 160.4901132255754 0  238.1023772270576 162.8725976094984 0  241.406699334305 163.8359650846702 0  238.9630278156374 166.2175426435888 0  234.7361516891476 161.8928266488476 0  213.124654294145 93.56046727196781 0  212.0434836741439 98.5447165103807 0  209.9504013355788 100.9044854564887 0  213.0958854424699 101.5871381629478 0  210.9302285957408 103.9580876602797 0  214.0010858928389 104.7096094485587 0  211.9141605791952 107.0615795921763 0  214.9890206858068 107.8102538193681 0  212.9269247290344 110.1901972673309 0  216.0786784436673 110.8721476340726 0  209.7617142319936 109.4041944495815 0  213.932211035267 113.2627867337288 0  217.0813395790477 113.941453344218 0  218.441750941724 80.63655841437071 0  242.2412500877879 167.1781012200828 0  229.2280100589433 126.5393356137107 0  225.9203624138538 125.4446005931909 0  223.3571983269889 127.7265579015054 0  222.6136526124249 124.535547281476 0  225.3056527306165 122.1016033222114 0  220.3254947810712 126.7409252226328 0  201.0777098578984 116.3274181811247 0  219.7857338015156 123.3740225787907 0  228.3312248450329 147.5116593523427 0  223.7608055035202 140.2236832285434 0  221.3299816979287 142.3937311365609 0  245.4512147769152 155.7068319139237 0  214.9140854911084 116.3016229600955 0  241.4261562479406 177.9745543740275 0  202.8157779574545 68.56000166221941 0  240.0703975438099 175.788326095019 0  222.1092806876692 145.4935485219417 0  220.9446699547174 129.9892194059113 0  217.7131509102484 129.0121441451285 0  231.966766611991 173.6290727753235 0  244.7035101352062 164.8150950666352 0  215.4589412711449 82.35047797613059 0  218.5358717759109 108.3057574313637 0  210.0910095413371 63.89870618133642 0  207.8879031726656 61.27101234314142 0  219.5945508510063 49.26517889117938 0  204.4640092132492 79.16637174968085 0  219.054165325738 63.24726086273807 0  245.5364828646638 168.1932520030346 0  204.1722248369768 62.21708558088665 0  205.6821920907016 58.50393459316535 0  209.6155639374877 57.86856426712311 0  196.5553895895766 69.81481204083099 0  235.6123608690412 152.8874163252039 0  233.2157615582107 155.2532908181879 0  240.6837858645011 122.4172544901715 0  210.8141135626509 127.8682271622992 0  245.3812170314571 182.2522052029404 0  206.9456715292139 54.99559933887414 0  210.5075513436263 54.0697256538542 0  207.9169085133073 103.1765167571325 0  223.2431750051092 164.070583057325 0  225.7483443677002 162.1151723759482 0  206.0378951001477 96.94148998994152 0  242.6796154699829 175.6597339900036 0  214.6838055972238 146.7252062992904 0  211.9990465678071 115.5576487680909 0  221.4613603554043 78.78973924681317 0  218.3291154698718 77.0769598533563 0  200.3358005877804 107.1120377748188 0  247.4072167499741 149.4171847419639 0  211.6397508657857 39.55684201930068 0  226.8243927196049 72.17619845696734 0  215.354291780634 85.55308818793476 0  236.5600255652378 131.6759521500912 0  226.0129792461303 165.2837912620818 0  218.060680211082 117.0067370946569 0  220.2726382852709 114.6051380114157 0  212.8793579154693 118.3711453694285 0  215.022609143906 99.35520341734289 0  203.0459334752391 85.71272568041367 0  202.8915272398735 55.67723839797077 0  220.5465456567309 139.1747891305704 0  239.6921265383864 169.3260213165692 0  236.6712881821608 168.5826958099534 0  218.0125893802946 141.5012621699478 0  201.3193403438535 110.3399099823547 0  203.3799271438462 107.9393487975089 0  248.1978655115356 165.7601936670729 0  248.8804221900089 169.2105116441819 0  237.1867529048816 147.1869371163321 0  236.7369473929319 176.2832209442509 0  247.3010859001464 162.3677476585113 0  204.3727171343656 110.8209535355564 0  235.7766571132668 128.3537547116865 0  217.8932394506906 150
[...]
<PointData  Vectors="f_12"> 
<DataArray  type="Float64"  Name="f_12"  NumberOfComponents="3" format="ascii">7.6402062916349089e-01 7.7603294683484714e-01 3.2542067227370552e-01  7.6344072854923806e-01 7.7660576308604012e-01 3.2377065485640272e-01  7.6273274868592700e-01 7.7730874093970903e-01 3.2174559432642208e-01  7.6223805458419269e-01 7.7782974486889023e-01 3.2028020045844435e-01  7.5863010854207813e-01 7.8190292173215448e-01 3.0909694708291729e-01  7.5724993062347390e-01 7.8400463747576266e-01 3.0394293008546946e-01  7.5646810124896446e-01 7.8503300185935099e-01 3.0126816660506411e-01  7.6402893600388455e-01 7.7072198684962312e-01 3.3395172275733642e-01  7.7629578937325872e-01 7.1807118479958221e-01 4.3202148835719523e-01  7.7919939580750597e-01 6.6774805765060519e-01 5.1198935512560206e-01  7.5449399170674991e-01 4.1214059869242664e-01 8.1174854538653518e-01  7.2894741634220261e-01 3.1736330172927862e-01 8.6298674360289496e-01  6.1205873932250787e-01 1.3001738760188683e-01 6.6561380613171295e-01  5.3822175815350082e-01 3.2996474756221056e-01 1.9919550061042854e-01  6.5160289437053631e-01 4.7981504606131176e-01 4.8181174473408006e-01  6.6042708550301843e-01 2.5307258413465317e-01 7.5831181977942053e-01  6.1999523018522884e-01 1.7694378051232909e-01 6.7405828664788947e-01  5.2160810441097583e-01 1.0929443092832812e-01 2.9494218511093895e-01  4.9726294403118410e-01 1.1131555631161436e-01 1.8852440898510073e-01  5.1172516193706696e-01 1.9713991784406479e-01 1.9339975743020174e-01  5.0339336595219353e-01 1.6308419254131229e-01 1.8189890800188316e-01  4.9698872524400595e-01 1.5576039312021298e-01 1.6094691561530519e-01  6.4354450971198940e-01 3.8369870750213447e-01 5.6602107506142885e-01  6.6453342354453249e-01 7.1343228518591151e-01 2.2559589001422140e-01  7.1649403339964823e-01 6.9152342784954068e-01 3.7873348332483259e-01  6.6265383861555660e-01 7.2395153941864332e-01 2.0994253751534978e-01  6.4824712559551867e-01 7.0837259518648199e-01 1.9018385594458728e-01  6.2576757789508752e-01 6.9372805806330085e-01 1.4630965817255942e-01  6.2655310219840898e-01 6.9352494688158983e-01 1.4856784480326926e-01  6.3322743893540012e-01 6.9270460181825022e-01 1.6734389232229324e-01  5.8951142999081196e-01 6.1158991373097515e-01 1.2435683563876614e-01  5.3573308385728680e-01 4.3763568898944966e-01 9.9251204364579376e-02  5.0765021705457125e-01 3.2981462158294050e-01 8.2327129952572756e-02  4.9919572165044718e-01 2.9537245345818369e-01 7.6434234580368368e-02  4.9750417973138189e-01 2.8870477191264277e-01 7.5134337361754067e-02  5.1977407962378197e-01 3.8139961794281579e-01 8.7087338380889473e-02  5.4553453610628888e-01 4.7627655868716084e-01 1.0174732050404139e-01  6.0492913598941678e-01 6.6059701887010458e-01 1.2110408384294623e-01  6.1611535353609670e-01 6.7759873812641902e-01 1.3584266731702874e-01  6.1359731474659784e-01 6.7385108548581374e-01 1.3265066185037694e-01  5.9698473548677478e-01 6.2874041575126982e-01 1.3103261479442019e-01  5.9860634906785770e-01 6.2956657516668657e-01 1.3532260850642186e-01  6.1321659469062006e-01 6.6508848452430513e-01 1.4155527465513212e-01  6.1241322349913141e-01 6.5851833013518257e-01 1.4643078777546192e-01  5.9068025982434313e-01 5.8712664631975509e-01 1.5487915890185666e-01  5.5025467774386139e-01 3.8497298660883306e-01 2.0130326809739085e-01  5.1314176746303930e-01 1.4074579380717278e-01 2.4012314091667691e-01  5.2761066543016444e-01 1.4744668476736794e-01 2.9792066287918456e-01  5.9709364133575327e-01 1.8799071560672939e-01 5.6805158572894288e-01  6.8112934136545467e-01 3.4418800585947629e-01 7.3157136559834701e-01  6.9526515438699588e-01 5.1479236232323378e-01 5.7006642979009770e-01  6.4644870294550727e-01 6.0112275875004462e-01 3.2125187602893568e-01  5.8490888259438989e-01 5.1959280002857910e-01 2.0280448272108700e-01  5.4344822357860401e-01 4.1318836703253975e-01 1.4822719380179217e-01  5.1629089193190536e-01 3.1627832850414989e-01 1.2316513093823801e-01  4.9054289041788018e-01 1.9939521347317873e-01 1.0790333694436167e-01  5.0195341632259205e-01 1.7519209563351507e-01 1.6694292033407460e-01  5.5596658847743108e-01 1.0667799810880202e-01 4.4232474548887857e-01  5.7047347983364427e-01 9.9971503570205247e-02 5.1435091979114267e-01  6.6644142765568748e-01 1.9360518255256118e-01 8.1383669273602688e-01  7.7622814904352977e-01 5.3650116253192282e-01 6.9340824512420496e-01  7.8379299944602121e-01 5.9263301950283309e-01 6.2571544497928189e-01  7.8280193052945424e-01 6.0595902138682012e-01 6.0565577107412616e-01  7.8105956719306047e-01 6.6446270081532299e-01 5.1878140369344061e-01  7.7493052255804251e-01 7.2976307470771273e-01 4.1227059084912909e-01  7.5718654635014992e-01 7.8345208178724923e-01 3.0484028545643016e-01  7.5327825588668340e-01 7.8780495624220936e-01 2.9255619447472286e-01  7.5273789974110028e-01 7.8799355846356034e-01 2.9149340766881854e-01  7.5279735200273024e-01 7.8769332399400682e-01 2.9204134934384857e-01  7.5331317910629492e-01 7.8685359080515749e-01 2.9407066636139356e-01  7.5305589049976263e-01 7.8707992052292663e-01 2.9335802584709625e-01  7.5486985422398512e-01 7.8512078760721260e-01 2.9894389939337351e-01  7.5882305347179146e-01 7.8140511479352492e-01 3.1014186917704978e-01  7.5914113999391197e-01 7.8112282900520014e-01 3.1101217389861280e-01  7.5612580777749538e-01 7.8394785325840910e-01 3.0249765699154341e-01  7.6135115627611738e-01 7.7880135239849457e-01 3.1758485910570716e-01  7.6288699654016967e-01 7.7720571706852004e-01 3.2210483041899191e-01  7.6333273489542619e-01 7.7674380797078346e-01 3.2341245850916761e-01  7.6391633462301656e-01 7.7613991376414482e-01 3.2511796141080701e-01  7.6397044267679226e-01 7.7608421475481271e-01 3.2527529481569878e-01  7.6399005926684294e-01 7.7606425502452536e-01 3.2533200949619839e-01  7.6397818210049095e-01 7.7607635712003875e-01 3.2529764854806548e-01  7.6394579371432547e-01 7.7610932740986804e-01 3.2520398045573262e-01  7.6388053881500562e-01 7.7617564495170999e-01 3.2501544329910859e-01  7.6378082130710589e-01 7.7627575076660904e-01 3.2472928430283421e-01  7.6362045438231307e-01 7.7643462185039325e-01 3.2427222399270683e-01  7.6321355612934638e-01 7.7682459794848668e-01 3.2313195365663960e-01  7.6296169605135056e-01 7.7707427769174486e-01 3.2241221573973389e-01  7.6101407429479007e-01 7.7914268738435111e-01 3.1660782435196450e-01  7.5973851590144659e-01 7.8056911283233932e-01 3.1267483570343779e-01  7.5782436667683550e-01 7.8304348551160829e-01 3.0622135850155752e-01  7.5674627969826103e-01 7.8470715853500983e-01 3.0216054196871006e-01  7.5754087289142080e-01 7.8375858598817272e-01 3.0474332986195041e-01  7.7204022022197583e-01 7.4347965732047661e-01 3.8714602096345530e-01  7.7468155572019004e-01 5.4309826220905622e-01 6.8145277771744883e-01  6.8483790878743689e-01 2.2096181919084804e-01 8.4393606595243098e-01  5.5537539374024891e-01 1.0719342434662577e-01 4.4009805802370000e-01  5.1969023918160218e-01 1.2814278975154450e-01 2.7166241464221380e-01  5.1349273154038144e-01 2.0018425326751996e-01 1.9809179628027856e-01  5.8826262077000058e-01 4.5361198003977038e-01 2.8302190776373115e-01  6.8188425602526981e-01 3.6487751555404729e-01 7.1239943195710420e-01  5.6095206275913112e-01 1.1990426658038132e-01 4.6481908978829967e-01  5.0103234763181215e-01 1.0501437950948388e-01 2.0837422364644653e-01  4.9739933894141863e-01 1.0768921196957316e-01 1.9136377147551076e-01  4.9824875824583914e-01 1.2210960377342274e-01 1.8620872871839092e-01  5.0091773587379185e-01 1.6035321078469908e-01 1.7376003216244831e-01  5.6251645441456699e-01 3.1012031245204547e-01 3.2075866384396717e-01  7.0637117205682354e-01 5.0041415368597963e-01 6.1805748633643331e-01  7.2644748746529386e-01 6.2470742213087993e-01 4.9574107298432207e-01  6.0474349938506267e-01 6.4384868875390144e-01 1.3796697153769097e-01  5.7082863469763800e-01 5.5738546515790266e-01 1.1585862011578220e-01  5.0552051385779984e-01 3.2313704654761782e-01 7.9432209996066469e-02  5.8031639852399231e-01 5.9308677661507780e-01 1.1353969942804994e-01  5.9482397966940870e-01 6.3805279919268820e-01 1.1416785703916532e-01  6.1422797403730567e-01 6.7212003438466517e-01 1.3656417421223482e-01  5.9652693022936387e-01 6.2188461266670914e-01 1.3701669371276487e-01  5.7799760261780819e-01 5.2033870288079020e-01 1.7906452273975040e-01  5.1495087316266164e-01 1.9493958132772554e-01 2.1056511196272054e-01  6.5399389991625079e-01 2.7375343507306549e-01 7.1337172561865136e-01  6.9450202902711744e-01 4.1809095052417533e-01 6.8670786201881151e-01  6.7541167379713640e-01 5.8667443143910880e-01 4.2363211659086752e-01  4.9802416523415738e-01 2.3647349597959630e-01 1.1129671573985041e-01  4.9303131092613373e-01 1.9610437452910207e-01 1.1910159417494830e-01  5.2076135714263416e-01 1.2747395905510547e-01 2.7457469234094328e-01  6.0196153603499913e-01 1.1988328416821900e-01 6.3242570012869959e-01  7.3785175295980743e-01 3.6190636302427814e-01 8.3939594160352715e-01  7.6633464935301854e-01 7.6327026525489128e-01 3.4885552674827919e-01  7.5442151208824193e-01 7.8560399271965242e-01 2.9756539557282691e-01  7.5958451306008912e-01 7.8065974737065846e-01 3.1233132442358780e-01  7.7865560478740703e-01 5.9662499243805933e-01 6.1391279855675029e-01  5.7447983523304991e-01 4.9050981521201481e-01 1.9548663429962590e-01  5.3690032070260429e-01 1.1077848199536711e-01 3.5679693632406928e-01  7.6017228082377941e-01 7.8008982609543187e-01 3.1400457607661308e-01  5.3290326150805389e-01 1.1412901667502252e-01 3.3572482853127833e-01  6.8748702178353061e-01 5.5735963263717314e-01 4.9472822233011682e-01  7.6409957971180786e-01 7.6878780663149715e-01 3.3722291759165235e-01  7.1261008630507849e-01 2.9064680860219855e-01 8.5429332631077814e-01  5.5208172117593213e-01 3.8839418714285107e-01 2.0495648635148137e-01  5.5256574850059836e-01 1.5045887636762828e-01 4.0623872728347249e-01  5.9603778461443990e-01 1.7712571032832830e-01 5.7644772434790448e-01  5.5682755564460573e-01 3.9039302912457119e-01 2.2099663686953427e-01  5.7988059829659244e-01 4.8677363059526851e-01 2.1922058696335528e-01  5.5507725194857005e-01 3.9053949496385598e-01 2.1484837403005314e-01  6.9028024042388658e-01 4.6138401356779796e-01 6.2494680271351366e-01  6.7870985849962329e-01 4.3128871173990280e-01 6.2584286313241289e-01  5.6170310168233684e-01 1.4585745471976075e-01 4.5173072184051011e-01  5.3544850070835437e-01 2.6739428912251623e-01 2.4084582766659351e-01  6.0364577577460565e-01 1.7800384155925938e-01 6.0852470709003947e-01  5.8644950526309836e-01 4.8113723413737386e-01 2.4983585300928615e-01  5.5397140643677756e-01 3.7442453874463710e-01 2.2553383205862168e-01  6.1227033963777378e-01 5.6300283380215010e-01 2.5495731253384096e-01  7.7926476091955754e-01 6.7940873295109250e-01 4.9455693271485213e-01  7.8011347920756213e-01 6.2860508883049382e-01 5.7042426235422805e-01  7.7822046242835974e-01 7.0018931060739553e-01 4.6183045419039331e-01  7.8029092616072793e-01 6.5797794726594472e-01 5.2784712675944323e-01  7.7610336119803869e-01 7.2023816571468191e-01 4.2840116090740543e-01  7.7677497851086708e-01 5.7130791212129095e-01 6.4650241653374863e-01  7.7898684272859753e-01 6.0673486733692150e-01 6.0030942868954540e-01  7.6803409163450509e-01 5.0445854144755686e-01 7.2226693093372818e-01  7.7351932952583224e-01 5.4745277244420198e-01 6.7433269734354551e-01  7.5366670364929211e-01 4.3191029426243271e-01 7.8770645728795019e-01  5.7861914651902979e-01 5.7974322035024217e-01 1.2047508652467703e-01  5.7041316897742600e-01 1.4430136854392994e-01 4.9164689644358084e-01  7.4225525308226448e-01 3.8446816903377506e-01 8.2048170243415786e-01  7.1603276210808942e-01 3.0448990291765698e-01 8.4814861387675855e-01  7.5766902154740845e-01 7.8345556752188816e-01 3.0537103959678458e-01  7.7980403152895261e-01 6.4075108203831044e-01 5.5258073462122925e-01  7.7732498748319845e-01 5.9028249389152510e-01 6.2126285781098867e-01  6.2175610168803042e-01 5.4229051092156910e-01 3.1124766823726185e-01  6.4463813195562791e-01 6.0858014742729449e-01 3.0715157325048775e-01  6.1436737065878566e-01 1.8550369530741523e-01 6.4631957114532046e-01  7.6307258553763668e-01 7.7697598292995929e-01 3.2271066748110383e-01  7.7913689469170222e-01 6.7383713706622483e-01 5.0289210684641095e-01  7.7920026581968471e-01 6.3166040372758070e-01 5.6504329891065141e-01  7.7168819938563182e-01 5.3568468698522820e-01 6.8732304005314082e-01  5.4161340146402170e-01 1.1401388156208911e-01 3.8199352264901704e-01  5.1557356812769872e-01 1.2069981940957175e-01 2.6162384872294847e-01  6.9914368186397990e-01 2.6242485283451605e-01 8.4580364360100446e-01  6.6168377549681345e-01 1.9357663647972850e-01 7.9558262482805897e-01  6.8497568237122219e-01 2.3364658503184388e-01 8.3340190208392828e-01  6.2291808313920172e-01 1.4521683493456120e-01 6.9575748598005827e-01  6.5099274351429470e-01 2.5812512317361408e-01 7.2032046411216266e-01  6.6037021163130782e-01 2.7650841421808647e-01 7.3484083981315917e-01  6.8501879280456968e-01 3.7756915203649166e-01 7.0682825721264497e-01  6.1549130462221380e-01 6.6023186916874288e-01 1.5251672867549487e-01  7.7673584614253033e-01 5.8363550608461789e-01 6.2962189758353970e-01  7.5464074087473310e-01 7.8666530414824709e-01 2.9625758208053932e-01  6.5511266544629687e-01 5.6795941475698319e-01 3.9062688763072556e-01  6.7309265809294749e-01 6.3426046875933373e-01 3.5699678492132170e-01  6.1415479697272768e-01 4.8517573850964235e-01 3.4987371994206456e-01  5.2406808375440295e-01 1.2587557201968191e-01 2.9603288262754557e-01  5.3541232433303831e-01 1.4016836211455549e-01 3.3825068770762490e-01  7.7169399378088566e-01 7.4611412575877833e-01 3.8257744870716881e-01  7.6881975914018086e-01 7.5765158874647709e-01 3.6080452395043844e-01  7.6479676780319161e-01 7.7046025203271629e-01 3.3540992441807627e-01  7.6240384938685168e-01 7.7599880820852773e-01 3.2352918799964775e-01  7.6017463778841510e-01 7.8056297046073431e-01 3.1334384313738112e-01  7.5874805711271209e-01 7.8263986525600826e-01 3.0815032861941982e-01  7.6009452285069279e-01 7.8019239975467025e-01 3.1384414956137618e-01  7.5752601946441434e-01 7.8398169518368577e-01 3.0437951711051003e-01  7.5802654463124663e-01 7.8317565604195039e-01 3.0635617437277773e-01  7.5652610680909427e-01 7.8479893821048063e-01 3.0172772963176703e-01  7.5724894391177633e-01 7.8377828692692475e-01 3.0429820219869336e-01  7.5692120580103417e-01 7.8380097090571710e-01 3.0381531329403455e-01  7.5819485699697520e-01 7.8229987829874814e-01 3.0789070759147108e-01  7.5815631515145943e-01 7.8216784797773964e-01 3.0804629990207277e-01  7.5577045418534039e-01 7.8523397495980440e-01 3.0000593806367648e-01  6.3234017431016176e-01 2.0819186964785366e-01 6.9737098223988703e-01  6.8824297106840437e-01 3.9601047692642483e-01 6.9508257010806618e-01  6.9156712850003710e-01 4.9093789045610575e-01 5.9096787684076457e-01  6.8833234199776561e-01 5.0007299121522242e-01 5.7063547975268780e-01  6.7159641456907337e-01 5.5940669975552293e-01 4.4787863936029537e-01  6.6255604914212607e-01 5.5662820493350296e-01 4.2467903237562754e-01  6.3217370278417939e-01 5.6167270576780759e-01 3.2160739393304644e-01  6.1991576453652242e-01 5.4184898731529418e-01 3.0319564888790529e-01  5.8517561681472241e-01 4.9237469644774923e-01 2.3138368421315136e-01  5.7353195183794037e-01 4.5926676137545192e-01 2.2076742868410437e-01  5.9602732261761637e-01 5.2066709263240674e-01 2.4175959194564611e-01  5.4409599906122796e-01 3.7687523789009308e-01 1.8189170381593533e-01  5.3519096648217357e-01 3.3768498676644237e-01 1.7986609466582454e-01  5.1246222563944555e-01 1.5596386246865290e-01 2.2543797480069566e-01  7.5953134673359790e-01 7.8069735044375033e-01 3.1219823155225135e-01  6.0219898979342124e-01 1.2810668130173314e-01 6.2576514100892033e-01  5.6760118348928812e-01 1.1012468045189938e-01 4.9180590498397792e-01  5.9024395032445132e-01 1.1956715003053647e-01 5.8233586564209516e-01  5.4478689089747900e-01 1.0741493084312301e-01 3.9357310672682028e-01  5.2948447196398185e-01 1.1384021585750966e-01 3.2275552378280248e-01  5.6525909545785091e-01 1.0851832392324186e-01 4.8239926117784493e-01  5.1023795016126394e-01 2.8805580945756593e-01 1.2105470300611783e-01  5.2794793961240205e-01 1.1378543526657539e-01 3.1593386943198620e-01  7.7701764955798680e-01 7.0349735967652993e-01 4.5536404360181609e-01  7.6315378442879267e-01 4.7956817472299140e-01 7.4611570145142825e-01  7.7172780399485041e-01 5.3257102766201136e-01 6.9138965932133234e-01  7.5819953650803362e-01 7.8328458799683620e-01 3.0637133707802489e-01  5.1735397111875558e-01 2.6030435302976324e-01 1.6924749397688640e-01  7.6234330997865352e-01 7.7776627016501487e-01 3.2051455921294580e-01  6.2684704254118739e-01 6.1952459244822800e-01 2.3759837641037493e-01  7.6134360397052014e-01 7.7879714686446411e-01 3.1758378433954904e-01  7.7940576661070382e-01 6.2653218725016735e-01 5.7258897890092875e-01  6.1891617798363074e-01 1.4043137493132968e-01 6.8388556267464717e-01  5.9248673725008272e-01 1.1973169967772147e-01 5.9147237858687840e-01  7.5801965382806702e-01 7.8213575807846825e-01 3.0791174921120840e-01  7.5942255487723231e-01 7.8090334390831362e-01 3.1172894247155597e-01  5.1695223546220248e-01 1.5433288928754935e-01 2.4618467117575615e-01  6.0681407103396645e-01 5.1550111822578581e-01 2.8681243317289185e-01  6.8290898804076339e-01 5.8267814625795378e-01 4.5198452015041385e-01  6.9193306602849913e-01 6.5510228412466753e-01 3.7697504832381634e-01  7.0278334399584019e-01 6.9843696775394870e-01 3.3795909664181528e-01  5.3141615618329119e-01 2.9005955351285101e-01 2.0532924741759898e-01  6.4333401338659624e-01 3.9522929742186447e-01 5.5411998538728158e-01  7.6072361463330307e-01 7.7943432570221971e-01 3.1576601997290937e-01  6.6825289418362976e-01 6.8617097628629209e-01 2.7396662133902938e-01  6.7923143718666701e-01 6.9995910181429677e-01 2.8250097410459785e-01  7.0361467533261246e-01 6.6861348350685523e-01 3.8476407299848492e-01  5.9745390960167655e-01 6.1037873447522140e-01 1.5241578576990142e-01  7.6237174860112922e-01 7.7490959365573076e-01 3.2523378613986081e-01  7.5938456829735579e-01 7.8050465837252003e-01 3.1242894683632200e-01  6.4451636061672413e-01 1.6433650328889854e-01 7.6094063193960737e-01  5.6584665864218375e-01 1.0735226294736905e-01 4.8513235897302248e-01  7.6361529348295798e-01 7.7644415589850890e-01 3.2425035307617572e-01  6.7589219510072873e-01 7.0649891376855622e-01 2.6458596300978121e-01  6.9594201641583509e-01 6.9413006052738335e-01 3.2980998317221522e-01  6.7866339227738959e-01 5.5831193768159526e-01 4.6949831281803667e-01  7.5317189239202009e-01 7.8775172481978251e-01 2.9248214694651614e-01  7.5389517946840079e-01 7.8736221667484052e-01 2.9410873278133465e-01  6.7926765928657740e-01 3.5264252826094561e-01 7.1674188014485207e-01  7.6206866665567097e-01 7.7803945400023722e-01 3.1972757393248141e-01  7.8153165280092451e-01 6.0504024039353921e-01 6.0542656453989796e-01  5.2195699641484739e-01 2.9290676211143274e-01 1.6269740835740643e-01  5.0817839403314113e-01 1.5349271840141945e-01 2.0847438385071490e-01  5.1760665188240862e-01 2.1957767425443411e-01 2.0208987536568959e-01  6.2254787501521758e-01 5.7595001796808132e-01 2.7225245619874333e-01  7.6199993419957246e-01 7.7700264211549308e-01 3.2139779643399413e-01  5.7196177131674875e-01 5.5691117602408013e-01 1.2021489416415919e-01  5.0708702657213256e-01 1.7616196842841497e-01 1.8854093813610390e-01  5.3249404137836853e-01 1.2800626796460338e-01 3.3253005531568985e-01  7.3128693579309456e-01 3.4457446151106441e-01 8.4087915144778191e-01  7.5357595771941444e-01 7.8705784620627883e-01 2.9412122387778594e-01  5.1331369154872142e-01 2.2636233229723163e-01 1.7797061455818688e-01  5.2569572262017228e-01 2.9174951646345038e-01 1.7893608725330284e-01  5.0831955698476328e-01 2.0417303261990200e-01 1.7312149339599270e-01  6.8997859817265039e-01 4.1991032649355031e-01 6.7227657971823440e-01  5.2350103292358230e-01 1.5230560258555173e-01 2.7706072811946281e-01  6.4617456967600273e-01 7.0265327201922834e-01 1.9169804063673368e-01  7.5034824373