<?xml version="1.0"?>
<VTKFile type="UnstructuredGrid"  version="0.1"  >
<UnstructuredGrid>
<Piece  NumberOfPoints="600" NumberOfCells="1069">
<Points>
<DataArray  type="Float64"  NumberOfComponents="3"  format="ascii">239.8 188 0  250.2 180 0  258.2 172.4 0  257 169.4 0  259.9 157.4 0  258.7 150.3 0  261 143.5 0  251.7 144.4 0  250 138.7 0  247 138.1 0  245.2 130.8 0  247.3 126.4 0  242.7 118.6 0  231.2 107.7 0  226 102.4 0  226.5 93.90000000000001 0  224.5 91.19999999999999 0  224.5 84.09999999999999 0  234.5 73.80000000000001 0  228.4 68.90000000000001 0  230 70 0  233.4 68 0  222.7 61.5 0  220.6 45.5 0  223.4 49.40000000000001 0  224 47 0  221.8 43.09999999999999 0  221 38.40000000000001 0  219.5 38.5 0  219.4 41.69999999999999 0  217.1 36.90000000000001 0  209.7 36 0  209.5 31.69999999999999 0  205.1 29.90000000000001 0  201.5 30.40000000000001 0  199.2 38.69999999999999 0  201.8 41.40000000000001 0  194.8 53.80000000000001 0  196.1 57.69999999999999 0  193 59 0  191.4 66.09999999999999 0  193.5 66.5 0  194.1 64.40000000000001 0  195.6 64.69999999999999 0  195.4 72.40000000000001 0  199.5 77.30000000000001 0  197.7 86.90000000000001 0  200.6 87.5 0  201.5 91 0  198 94.80000000000001 0  198.6 100 0  197.3 105.4 0  198 109.5 0  197 112.7 0  198.3 116.1 0  201.3 122 0  207.2 121 0  208.1 126.7 0  205.6 127.9 0  209.1 134.9 0  210.9 144.4 0  210.1 147.9 0  213 148.4 0  215.4 149.3 0  215.1 152.8 0  219.9 159.7 0  220.3 163.2 0  218.7 164.9 0  219.9 166.7 0  221.9 169.7 0  220 170.3 0  224.9 174.7 0  229.8 177.4 0  229.7 181 0  228 172.9 0  239 178 0  240.4 180 0  239 181.5 0  241.2 185.9 0  242.95 187.99 0  241.113414658978 187.995830429654 0  242.142964269982 187.9925620181905 0  243.6619187087475 187.2054164851183 0  244.631513060971 186.1368566403919 0  245.9520480703466 184.6815359886801 0  247.7505449816197 182.6994683581873 0  252.8666666668011 177.466666666539 0  255.5333333336077 174.9333333330727 0  257.9666666666661 165.4000000000025 0  258.9333333333339 161.3999999999974 0  259.3000000000018 153.8500000000108 0  259.849999999995 146.9000000000149 0  256.350000000011 143.9499999999989 0  250.8500000000015 141.5500000000051 0  246.1000000000042 134.450000000017 0  245.0000000000049 122.5000000000082 0  239.8250000000041 115.875000000004 0  236.9500000000083 113.1500000000079 0  234.0750000000041 110.4250000000039 0  228.6000000000041 105.0500000000042 0  226.25 98.15000000000002 0  224.5 87.65000000001388 0  227.8333333333301 80.66666666667 0  231.1666666666644 77.23333333333571 0  232.2500000000014 71.90000000000116 0  230.8999999999995 68.45000000000009 0  225.5500000000108 65.20000000001409 0  222.9333333333329 57.46666666667507 0  223.1666666666663 53.43333333333877 0  218.2500000000016 39.30000000000339 0  213.4000000000277 36.45000000000337 0  200.3500000000025 34.54999999999097 0  199.4666666666726 45.53333333332282 0  197.1333333333385 49.66666666665756 0  193.5499999999978 61.6999999999891 0  193.3999999999962 69.24999999999406 0  197.4499999999954 74.84999999999454 0  198.6000000000007 82.09999999999631 0  199.7500000000014 92.8999999999985 0  198.2999999999997 97.39999999999726 0  197.950000000001 102.699999999996 0  199.7999999999944 119.049999999989 0  204.2499999999946 121.5000000000009 0  207.6499999999987 123.8499999999919 0  207.35 131.4 0  209.9999999999998 139.649999999999 0  217.4999999999938 156.249999999991 0  223.4 172.2 0  234.349999999995 179.5000000000016 0  243.6879031604435 137.0140197666175 0  200.5383884465266 74.3488835611292 0  236.0631303447202 117.0934887033495 0  255.2860706566257 162.4962097513293 0  210.288597171716 124.9641969758756 0  200.5494091764226 101.6938959209836 0  221.0463142825589 155.4583368622661 0  213.2458552033902 137.0182369603261 0  202.5715495252679 76.72215432732189 0  203.3954031521662 88.63888283314805 0  204.2685850489914 91.3771816532193 0  227.6002395557545 108.6285485308707 0  203.628067965887 73.80056467640915 0  205.5882193517793 76.19298591547215 0  219.3893731065793 59.36381842571261 0  222.6962970705901 100.2685345181304 0  206.2147206748961 89.23684943534887 0  224.5717795045128 68.90112930058935 0  207.1505150846513 91.97409496002633 0  206.6973804802006 73.20614062920998 0  209.0198262461606 75.84435446174592 0  204.6828826698789 70.78585325419728 0  244.5505030757118 140.1958289722003 0  241.2713205316759 139.2760911012237 0  242.0887623359319 142.523888210035 0  238.8201809392432 141.5810446831215 0  239.6254755922404 144.8663288044098 0  238.0282380951174 138.3361101328854 0  235.5650201404635 140.6403522599634 0  234.7868703265066 137.3765638391416 0  232.3671992655526 139.7040340002533 0  231.5735594060041 136.4371341666237 0  203.6025996895933 45.13245413868078 0  209.0094500142995 89.77916893533093 0  234.0048963149566 134.0619286436701 0  230.7388584519252 133.0932019642386 0  256.0202376970822 152.4353991158102 0  233.1239077827668 142.9168616681826 0  229.9476468053365 142.0041066209365 0  207.8316386186595 70.1760146256688 0  205.8080150778045 67.77328389450008 0  210.1255397865818 92.58553759086743 0  249.9530000513888 175.7831884132348 0  230.7520925362455 145.2114145624654 0  227.5614746466729 144.2879078440436 0  226.855634298717 141.1029513419209 0  221.109901317114 86.07738557802102 0  221.3898452401857 82.41394785245797 0  233.1906280944642 130.7538222264552 0  229.849944657733 129.8156996791429 0  227.4514186000422 132.1240250470279 0  226.5693510741891 128.7503487535618 0  208.0732626511005 94.86195720558288 0  211.0579654481564 95.54875779444082 0  209.0041892644107 97.86214677695602 0  216.7276956906574 41.503774594868 0  224.4517166451922 143.3327513982825 0  222.7890579510523 161.0597281586643 0  209.0698801997012 67.10609773523754 0  206.9141710660066 64.58868367949086 0  211.5265666272545 70.15591236789595 0  218.2872405225432 83.97244872861398 0  207.7311279855657 86.71297189445447 0  242.9081583239214 145.8040728889821 0  240.4621480942806 148.1601866910276 0  243.7562457682554 149.0907552716282 0  241.3145175595932 151.4726760652338 0  244.57940289053 152.3666461928266 0  242.1615185950008 154.7794567484269 0  238.8718789959482 153.837018554675 0  239.7122407256576 157.1523621063041 0  236.4289375384117 156.2070529629317 0  237.2412111497984 159.5248795948406 0  240.5638486223294 160.4901132255754 0  238.1023772270576 162.8725976094984 0  241.406699334305 163.8359650846702 0  238.9630278156374 166.2175426435888 0  234.7361516891476 161.8928266488476 0  213.124654294145 93.56046727196781 0  212.0434836741439 98.5447165103807 0  209.9504013355788 100.9044854564887 0  213.0958854424699 101.5871381629478 0  210.9302285957408 103.9580876602797 0  214.0010858928389 104.7096094485587 0  211.9141605791952 107.0615795921763 0  214.9890206858068 107.8102538193681 0  212.9269247290344 110.1901972673309 0  216.0786784436673 110.8721476340726 0  209.7617142319936 109.4041944495815 0  213.932211035267 113.2627867337288 0  217.0813395790477 113.941453344218 0  218.441750941724 80.63655841437071 0  242.2412500877879 167.1781012200828 0  229.2280100589433 126.5393356137107 0  225.9203624138538 125.4446005931909 0  223.3571983269889 127.7265579015054 0  222.6136526124249 124.535547281476 0  225.3056527306165 122.1016033222114 0  220.3254947810712 126.7409252226328 0  201.0777098578984 116.3274181811247 0  219.7857338015156 123.3740225787907 0  228.3312248450329 147.5116593523427 0  223.7608055035202 140.2236832285434 0  221.3299816979287 142.3937311365609 0  245.4512147769152 155.7068319139237 0  214.9140854911084 116.3016229600955 0  241.4261562479406 177.9745543740275 0  202.8157779574545 68.56000166221941 0  240.0703975438099 175.788326095019 0  222.1092806876692 145.4935485219417 0  220.9446699547174 129.9892194059113 0  217.7131509102484 129.0121441451285 0  231.966766611991 173.6290727753235 0  244.7035101352062 164.8150950666352 0  215.4589412711449 82.35047797613059 0  218.5358717759109 108.3057574313637 0  210.0910095413371 63.89870618133642 0  207.8879031726656 61.27101234314142 0  219.5945508510063 49.26517889117938 0  204.4640092132492 79.16637174968085 0  219.054165325738 63.24726086273807 0  245.5364828646638 168.1932520030346 0  204.1722248369768 62.21708558088665 0  205.6821920907016 58.50393459316535 0  209.6155639374877 57.86856426712311 0  196.5553895895766 69.81481204083099 0  235.6123608690412 152.8874163252039 0  233.2157615582107 155.2532908181879 0  240.6837858645011 122.4172544901715 0  210.8141135626509 127.8682271622992 0  245.3812170314571 182.2522052029404 0  206.9456715292139 54.99559933887414 0  210.5075513436263 54.0697256538542 0  207.9169085133073 103.1765167571325 0  223.2431750051092 164.070583057325 0  225.7483443677002 162.1151723759482 0  206.0378951001477 96.94148998994152 0  242.6796154699829 175.6597339900036 0  214.6838055972238 146.7252062992904 0  211.9990465678071 115.5576487680909 0  221.4613603554043 78.78973924681317 0  218.3291154698718 77.0769598533563 0  200.3358005877804 107.1120377748188 0  247.4072167499741 149.4171847419639 0  211.6397508657857 39.55684201930068 0  226.8243927196049 72.17619845696734 0  215.354291780634 85.55308818793476 0  236.5600255652378 131.6759521500912 0  226.0129792461303 165.2837912620818 0  218.060680211082 117.0067370946569 0  220.2726382852709 114.6051380114157 0  212.8793579154693 118.3711453694285 0  215.022609143906 99.35520341734289 0  203.0459334752391 85.71272568041367 0  202.8915272398735 55.67723839797077 0  220.5465456567309 139.1747891305704 0  239.6921265383864 169.3260213165692 0  236.6712881821608 168.5826958099534 0  218.0125893802946 141.5012621699478 0  201.3193403438535 110.3399099823547 0  203.3799271438462 107.9393487975089 0  248.1978655115356 165.7601936670729 0  248.8804221900089 169.2105116441819 0  237.1867529048816 147.1869371163321 0  236.7369473929319 176.2832209442509 0  247.3010859001464 162.3677476585113 0  204.3727171343656 110.8209535355564 0  235.7766571132668 128.3537547116865 0  217.8932394506906 150
[...]
<PointData  Vectors="f_12"> 
<DataArray  type="Float64"  Name="f_12"  NumberOfComponents="3" format="ascii">6.5234479809773482e-01 1.5468934769004292e-01 7.8582392818294766e-01  6.4714627714202888e-01 1.4847311312488126e-01 7.7298541020604727e-01  6.4417206262239224e-01 1.4503976006891919e-01 7.6535171400098390e-01  6.4538459876386134e-01 1.4650294851298931e-01 7.6846623897258726e-01  6.6046844258269422e-01 1.6594317760070312e-01 8.0403832244427043e-01  6.7384961656685038e-01 1.8548751015869497e-01 8.3026547206771750e-01  6.7990136859145711e-01 1.9489963350734116e-01 8.4052287826539884e-01  6.8627696905130975e-01 2.0651083465931042e-01 8.4950436668516838e-01  7.0283452588714934e-01 2.3845528751069514e-01 8.6698176546589889e-01  7.1224588533970790e-01 2.5887463394863108e-01 8.7209719839408417e-01  7.4907267627463281e-01 3.5178232754412952e-01 8.5923195361862970e-01  7.5650514349643716e-01 3.7318721110700415e-01 8.4975256288429235e-01  7.2032517556519038e-01 2.8175266605221744e-01 8.7301140448290171e-01  5.2441199127373039e-01 9.1202913548427203e-02 3.1337829874945983e-01  4.9195872122140777e-01 1.2346489978013413e-01 1.5809330808967526e-01  4.8658659531140813e-01 1.8858422924068802e-01 9.9403248782229975e-02  4.9147248187831244e-01 2.2728731253783138e-01 9.3024587806018105e-02  5.2225888230008344e-01 3.8993222615237993e-01 8.9373831855367472e-02  5.5370236280129825e-01 5.1502658389493483e-01 9.6599529140479257e-02  6.1307526315137850e-01 6.2333661027269460e-01 1.8552210843752490e-01  5.9153404888448902e-01 5.9481890823632666e-01 1.4723208018836093e-01  5.8651818961004709e-01 5.9557149002703846e-01 1.3203398964852650e-01  6.7115443386929230e-01 4.2521580013645272e-01 6.1493617823728819e-01  5.1426459613209874e-01 1.3831563302825819e-01 2.4669200489625057e-01  5.2674013570103551e-01 1.9646608612299385e-01 2.6165960830469909e-01  5.0933374732983461e-01 1.2792551427625312e-01 2.3192549848577754e-01  5.1366033972021496e-01 1.2105533647996350e-01 2.5484540898494867e-01  5.1614213543210541e-01 9.7535404034895648e-02 2.8001583250592249e-01  5.1621558937253909e-01 9.9109158807183531e-02 2.7937560725891603e-01  5.1655109001689126e-01 1.1249385330308985e-01 2.7281525396043982e-01  5.3209286169009307e-01 1.0225908231916749e-01 3.4986042972859760e-01  6.0074449435702904e-01 1.6423253264508911e-01 6.0426978092462102e-01  6.7874833054071770e-01 2.5814684000395643e-01 8.0862005266016967e-01  7.1059486017410678e-01 3.2429796264024668e-01 8.2803794622672666e-01  7.1416810256533136e-01 3.3394734385834574e-01 8.2726011161354829e-01  6.1981173795747346e-01 1.9660231216773053e-01 6.6162013069505954e-01  5.8678204553811342e-01 2.0259399762106384e-01 5.2120868911270501e-01  6.8862540494815516e-01 4.8433094145737965e-01 5.9522884660443198e-01  7.1953408261119678e-01 5.6286681906078995e-01 5.6716478506857326e-01  7.3687920944703855e-01 6.3037685733231497e-01 5.0746572869838835e-01  7.2532076552009328e-01 7.5451988163530959e-01 3.0185876950997581e-01  7.2472505599508907e-01 7.5048354854122434e-01 3.0681683647494140e-01  7.3789614144005788e-01 6.8400333645439426e-01 4.3013702870763731e-01  7.3452318921109960e-01 7.0064672174565035e-01 3.9925358325802046e-01  7.0404860412424985e-01 7.5533416507526707e-01 2.5956539681817381e-01  6.3957332754293450e-01 6.9337265247423729e-01 1.8400176358278703e-01  5.4873167058703154e-01 4.8919248053685777e-01 1.0240190187803647e-01  5.4143124487649075e-01 4.5523216002545047e-01 1.0476138413796532e-01  5.0958442899430711e-01 3.1062401344286511e-01 1.0191580693106538e-01  4.9104447655468036e-01 2.0595858224328098e-01 1.0479982552964255e-01  4.8927210630147888e-01 1.5078827446337401e-01 1.3183394988890157e-01  4.9819860880286632e-01 1.0672997763169803e-01 1.9233507977818015e-01  5.1628362316695176e-01 9.0149575656969350e-02 2.7755636107613807e-01  5.3413629568580123e-01 8.3859283470877871e-02 3.5969155145180559e-01  5.5349328690691291e-01 8.4680068407409312e-02 4.4497606097627618e-01  5.8598160348713857e-01 9.4942334295656780e-02 5.8073716664945207e-01  6.0125679680328759e-01 1.1232248470319563e-01 6.3077749660747195e-01  7.0932392538301481e-01 2.6652052602045961e-01 8.5935510972657581e-01  7.3019932916015418e-01 3.1043452368122082e-01 8.6774945245430191e-01  7.6978152362661523e-01 4.2409794011383345e-01 8.1599031816664291e-01  7.6820604176054030e-01 4.1746526608948387e-01 8.2022236313329744e-01  7.6443395802731262e-01 4.0424354362912329e-01 8.2934300874509015e-01  7.6045582206870366e-01 3.9115126099784420e-01 8.3725374027618793e-01  7.4796990493527116e-01 3.5192677028656782e-01 8.5733361622220872e-01  7.3406646619566251e-01 3.1169775228753588e-01 8.7128582035826840e-01  7.0560470742339609e-01 2.4366488868714034e-01 8.6935343686183708e-01  6.9477588126111112e-01 2.2165858559941362e-01 8.6006203016435379e-01  6.9226699951225090e-01 2.1677501433186069e-01 8.5736985246790320e-01  6.9001352855336717e-01 2.1262973869955001e-01 8.5465412608662916e-01  6.8575042289022159e-01 2.0506851527041281e-01 8.4903183193403697e-01  6.8683178308958059e-01 2.0686321985965786e-01 8.5061250492871721e-01  6.7816839377746085e-01 1.9234167232659086e-01 8.3767452638778950e-01  6.6251279995034018e-01 1.6867450437923853e-01 8.0845854656761196e-01  6.6159892374162876e-01 1.6736680121752179e-01 8.0651480425775279e-01  6.7244430679704292e-01 1.8347056368069156e-01 8.2766096683929791e-01  6.5404065323871885e-01 1.5721045622177898e-01 7.8964721166862328e-01  6.5165060101597760e-01 1.5399520597302166e-01 7.8407707128694193e-01  6.5157870718140543e-01 1.5384016507415116e-01 7.8393745571423823e-01  6.5202856238715845e-01 1.5431374382824567e-01 7.8505709164796245e-01  6.5213694499605424e-01 1.5444000393810911e-01 7.8532109841669528e-01  6.5223967735446675e-01 1.5456392352443737e-01 7.8556933256008710e-01  6.5218167117825754e-01 1.5449403790452029e-01 7.8542918038408160e-01  6.5202139404439863e-01 1.5430114344577450e-01 7.8504127821591185e-01  6.5168823946253163e-01 1.5390063260613726e-01 7.8423313515672188e-01  6.5094783381107357e-01 1.5300779301062672e-01 7.8243068385067338e-01  6.4951691929540611e-01 1.5129134292874122e-01 7.7891283290996249e-01  6.4519723775322746e-01 1.4619779414988227e-01 7.6801013676638186e-01  6.4420704989132616e-01 1.4506250780769145e-01 7.6544761789255567e-01  6.4929029757292733e-01 1.5130182038416121e-01 7.7824857625612698e-01  6.5462145885797418e-01 1.5810873492166533e-01 7.9096368714162824e-01  6.6637287202651996e-01 1.7431247328096611e-01 8.1622167872697027e-01  6.7882802030256895e-01 1.9321829113420841e-01 8.3878022793583140e-01  6.8019452409976799e-01 1.9549882024740048e-01 8.4097393336834869e-01  6.9634758257147722e-01 2.2544381234279118e-01 8.6122965573474819e-01  7.3218810455215655e-01 3.0643506835766876e-01 8.7222056562290207e-01  7.4886491002901512e-01 3.5162564989282374e-01 8.6000438954654412e-01  6.7298564201709243e-01 1.9521291061019569e-01 8.2465599977649207e-01  6.1110249942798545e-01 1.2468531998519791e-01 6.6174537638174058e-01  5.5928976943010733e-01 9.5610418868409278e-02 4.6371751619956703e-01  5.0473924501185763e-01 1.0130949075802662e-01 2.2282587241713572e-01  4.8568029635469701e-01 1.5679070319810720e-01 1.1490180937843257e-01  5.0366401994858390e-01 3.0008514632787076e-01 8.8452463672472156e-02  5.3776500651989367e-01 4.6176582929595850e-01 8.7731154394923336e-02  5.4814690432227686e-01 4.9935626077652817e-01 9.1696957259499196e-02  5.6208745177159558e-01 5.3550876457150542e-01 1.0655615710124199e-01  5.8981568217842462e-01 5.9577559016459136e-01 1.4155390428525944e-01  6.7768276727141541e-01 6.1726306111199714e-01 3.9198939351390311e-01  6.0324469943897563e-01 2.7251593048006528e-01 5.2925825735584453e-01  5.5213921527692011e-01 2.2482137087595250e-01 3.5193830740888948e-01  5.2580088603716535e-01 1.0585595098020839e-01 3.1855179727213073e-01  5.4751262858033245e-01 1.1430820625387692e-01 4.1169052884401441e-01  6.7001932368482042e-01 2.5475231258362852e-01 7.8292685313445021e-01  5.9735667500799439e-01 3.0912116195161726e-01 4.7298628686032818e-01  6.4768866848711348e-01 4.1277124558843536e-01 5.5565021534579795e-01  7.3835031494508685e-01 6.5090797088221852e-01 4.7984316898099338e-01  7.2064130832685036e-01 7.5555790270485090e-01 2.9171402436096605e-01  6.8048844415184218e-01 7.4011834692730993e-01 2.2894188496816800e-01  5.7637737315015336e-01 5.7146521386445426e-01 1.2190915302607828e-01  4.9589862669700546e-01 2.3738181383412879e-01 1.0223687280202465e-01  4.8915807269782269e-01 1.8162259167241965e-01 1.1291306347287067e-01  4.9251495466549416e-01 1.2313407232875485e-01 1.6043731372369013e-01  5.7415321910621409e-01 9.0301643354256084e-02 5.3234284393396103e-01  5.8736112407185737e-01 9.7007575311662902e-02 5.8537216914016565e-01  6.5268681464653322e-01 1.6993459668537941e-01 7.7788097865135575e-01  7.4822766717025813e-01 3.5852186555724519e-01 8.5293589519181501e-01  7.7590797826263813e-01 4.4513615963889974e-01 7.9960519013617104e-01  7.2122309331761481e-01 2.7900594702767051e-01 8.7468443537077545e-01  6.8017383212655902e-01 1.9566612189931631e-01 8.4078882496920482e-01  6.5974952162053191e-01 1.6482756146620609e-01 8.0254000670024106e-01  7.2422157974210433e-01 2.8663956173957317e-01 8.7407765456496567e-01  6.7123454693410889e-01 7.2835958055440819e-01 2.2258425792748371e-01  6.4737281944669312e-01 1.6075876359698688e-01 7.6926834555178958e-01  6.5240877002404307e-01 1.5526382885066070e-01 7.8576535037400264e-01  6.7585865175566562e-01 2.0422530315045620e-01 8.2376812069028438e-01  4.9049402810537918e-01 1.3542854949998484e-01 1.4548218258918028e-01  7.1623165473705863e-01 2.6739273396039376e-01 8.7383992873641025e-01  7.7393941046762293e-01 4.3798664222046108e-01 8.0524716456235923e-01  6.4031350587161728e-01 6.9224021910042510e-01 1.8724671903650583e-01  5.2568536436807700e-01 3.8793702984831280e-01 1.0254262325313597e-01  5.0786413056142143e-01 3.0465689545339930e-01 9.9944654322704191e-02  5.1508573579397643e-01 9.3731201583528198e-02 2.7142377081671726e-01  6.7165502494720852e-01 7.2147749588751120e-01 2.3293166259594933e-01  6.4207519779903832e-01 6.9074766863562242e-01 1.9398927884654277e-01  6.3662061445579754e-01 3.1985361529353862e-01 6.1187840152663053e-01  4.8720402203690333e-01 1.4279796786682833e-01 1.2864854241127216e-01  5.1827139542966327e-01 3.5755907061378572e-01 9.9047647620850290e-02  6.5109112901810817e-01 6.4680868418382109e-01 2.7495169478917081e-01  5.0356421766633996e-01 2.8599833319228785e-01 9.7481221895404840e-02  6.7493903759500429e-01 7.1442436419993527e-01 2.5073465109253662e-01  6.4091051041774016e-01 6.8430511738850608e-01 1.9926384497684588e-01  7.0046244026056126e-01 7.2026439249824037e-01 3.0217902210025072e-01  7.1047386648290489e-01 2.5490757881809029e-01 8.7144049507637233e-01  7.1982894298236810e-01 2.7613342429359239e-01 8.7408417000642002e-01  7.0705096269976087e-01 2.4756204704199389e-01 8.6961749357069007e-01  7.1612041940396942e-01 2.6760467984212721e-01 8.7342985278243934e-01  7.0366251400646640e-01 2.4055444649829011e-01 8.6731919278347080e-01  7.2901865177138703e-01 2.9835468774833901e-01 8.7331871573171493e-01  7.2578196203444933e-01 2.9049545884013162e-01 8.7389809217135228e-01  7.3795401891805978e-01 3.2141558271636128e-01 8.6914216690327706e-01  7.3558821521531903e-01 3.1552387886110950e-01 8.7029472526670781e-01  7.4592755437505009e-01 3.4343252091124438e-01 8.6226764992521521e-01  5.7654757481012764e-01 2.5294511984042972e-01 4.3607752638448832e-01  5.1183198654171980e-01 3.3052488454963591e-01 9.5912768080531383e-02  7.4682592999449515e-01 3.4546396866306150e-01 8.6183028919177518e-01  7.5022164355476850e-01 3.5566014341548552e-01 8.5765730713632538e-01  6.6988576820167434e-01 1.7953636708388132e-01 8.2297343126544709e-01  7.2334712339413654e-01 2.8477245259513134e-01 8.7400854807254869e-01  7.3385659601154640e-01 3.1136461285769612e-01 8.7092896959199861e-01  7.0353273156263907e-01 7.0084951362279868e-01 3.3685247410310981e-01  7.2099506741237229e-01 6.7988635081308879e-01 4.0438691503880098e-01  4.9898923563815234e-01 2.6391628251661803e-01 9.6032977855664392e-02  6.4593493515246070e-01 1.4708089957426060e-01 7.6989301840754865e-01  7.2147965946561632e-01 2.8044399204287668e-01 8.7394157928008265e-01  7.3265820228584777e-01 3.0850755567970689e-01 8.7132119809063568e-01  7.4414666130730711e-01 3.3968930210498494e-01 8.6289839196028795e-01  5.1211248301272883e-01 3.4108400900031788e-01 8.9545699476451301e-02  5.3318683951259527e-01 4.2994477535513825e-01 9.6521029371903627e-02  7.4748785214885460e-01 3.4768164177435423e-01 8.6111648563651855e-01  7.4259097063140300e-01 3.3573717682737808e-01 8.6474207546924886e-01  7.5032744585910949e-01 3.5727894197740567e-01 8.5658516998245471e-01  7.3234721610937825e-01 3.1150706014952967e-01 8.6931459518567855e-01  4.9375382638088611e-01 2.2701577025712147e-01 1.0126879139421349e-01  4.9101040695695625e-01 2.1025413931772263e-01 1.0198004081144406e-01  4.8878512967612431e-01 1.8131106456433288e-01 1.1170248224289028e-01  5.2294237381806263e-01 1.1569637945722679e-01 2.9943953337369972e-01  7.4378461425949827e-01 3.3912383736824436e-01 8.6286389194840063e-01  6.9803421345821171e-01 2.2826523440696300e-01 8.6312939256161780e-01  7.2017203290299092e-01 6.4043359676898282e-01 4.6001209069625137e-01  7.2410615333824224e-01 5.8892537634348607e-01 5.4080571405278288e-01  6.9949458125086217e-01 6.8627286908304586e-01 3.4904365801519432e-01  5.2953562504604779e-01 4.1171866829961340e-01 9.7804714368952161e-02  5.3229272152124796e-01 4.1901657520129520e-01 1.0186619404354391e-01  6.9553107133273817e-01 2.2418353459762178e-01 8.6024903762040450e-01  6.9224512692208950e-01 2.1806879880077509e-01 8.5661952043869294e-01  6.8515980807859211e-01 2.0505845230019404e-01 8.4773015032854149e-01  6.8191321516345960e-01 1.9956918721324210e-01 8.4299748560275578e-01  6.7590096109893960e-01 1.8945516122561931e-01 8.3349937780662509e-01  6.7278309763471533e-01 1.8459911964755032e-01 8.2805386444567308e-01  6.7959856264623342e-01 1.9573385600952203e-01 8.3942394270228760e-01  6.7095413383849190e-01 1.8179828386930402e-01 8.2472697937532746e-01  6.7852073604273733e-01 1.9394380017135882e-01 8.3770991409882245e-01  6.7055547760455170e-01 1.8116522243502500e-01 8.2399436245681212e-01  6.6369045165390628e-01 1.7090463850213308e-01 8.1062305879066643e-01  6.6394270789391585e-01 1.7123229922536426e-01 8.1115088574649741e-01  6.5796432173216501e-01 1.6280831028999729e-01 7.9842638165694513e-01  6.5886482089222287e-01 1.6399492290762940e-01 8.0042091889284961e-01  6.7156772393989883e-01 1.8263841364970737e-01 8.2587794731007280e-01  4.9385939259749539e-01 2.3521526336326065e-01 9.6461528151330439e-02  4.8759631892461430e-01 1.7011860958721819e-01 1.1406715740278743e-01  4.8821898698199656e-01 1.4760856243511908e-01 1.2968935955198907e-01  4.8809931670690565e-01 1.4054649461311530e-01 1.3334707282187447e-01  4.9150403701630002e-01 1.2320642150171152e-01 1.5644073493931129e-01  4.9231754574074094e-01 1.1865493984422593e-01 1.6225069820708640e-01  4.9887236062420670e-01 1.0580955452350151e-01 1.9586266946479461e-01  5.0047416061488037e-01 1.0322884273015219e-01 2.0398005078372328e-01  5.1092990408639338e-01 9.4412186283889699e-02 2.5277277463400460e-01  5.1316218769760502e-01 9.3288970485411321e-02 2.6309347164700686e-01  5.0910770608606393e-01 9.5557227690087135e-02 2.4421148899353853e-01  5.2857671973031861e-01 8.9366202978337556e-02 3.3221252142680324e-01  5.3247472121026218e-01 8.9568868589049902e-02 3.4943840734459292e-01  5.5631722621641266e-01 5.0356426879723282e-01 1.1510245218374167e-01  6.5379730108278689e-01 1.5716333689071324e-01 7.8898126976088301e-01  7.1830826027683581e-01 2.7864898334871668e-01 8.7057138652617350e-01  6.9594890118034458e-01 2.3506615149598781e-01 8.5527578204817400e-01  7.1841389229581376e-01 2.8093670282540384e-01 8.6895553820173255e-01  6.7457105577199816e-01 1.9977136481109387e-01 8.2503964482054104e-01  6.4487450174447880e-01 1.5879024483122670e-01 7.6143328236622521e-01  7.0300255219143226e-01 2.4986638395064933e-01 8.6105282385033932e-01  5.5991081542676835e-01 8.6700916053539592e-02 4.7183878542249036e-01  6.5166340332410266e-01 1.6809067061442173e-01 7.7734387984417352e-01  7.2050251085254735e-01 2.7815398991723361e-01 8.7389212363448809e-01  7.5381598860576804e-01 3.6863599278963927e-01 8.5032826916442805e-01  7.5435036159443103e-01 3.7092281972826247e-01 8.4889264483080518e-01  6.6748260494684108e-01 1.7637984512072932e-01 8.1822867754518380e-01  5.5372636253260332e-01 9.2391269971760420e-02 4.4125395282873242e-01  6.5163524312885579e-01 1.5405630773048504e-01 7.8399898544673507e-01  7.1773968949767275e-01 7.1203570328933496e-01 3.5044272979133501e-01  6.5315853045604977e-01 1.5609634312647866e-01 7.8757426735658320e-01  7.4349739242073876e-01 3.3852590700555590e-01 8.6296651884429576e-01  7.3886303972167955e-01 3.3041855337557369e-01 8.6385385120661362e-01  7.2962854539866440e-01 3.0891473716873291e-01 8.6706314194453216e-01  6.6458309150437500e-01 1.7175239981401580e-01 8.1261353459923957e-01  6.5344792425030751e-01 1.5673251256031095e-01 7.8815893479922083e-01  5.5023418975381688e-01 4.8356154929683826e-01 1.1137743873332388e-01  5.0206643106104820e-01 1.0118965805720602e-01 2.1177328230843950e-01  7.1331328576110531e-01 5.2797149452782399e-01 5.9881054236746589e-01  6.9969294984818364e-01 4.6079307991163154e-01 6.5093170916200371e-01  5.2568730979630807e-01 1.8747252405928494e-01 2.6332957062933193e-01  6.0895827134566471e-01 6.4040580394844759e-01 1.5474121128256590e-01  6.8779594237358932e-01 4.6865266216339002e-01 6.1128437949241476e-01  6.5001922664505862e-01 1.5226963290774870e-01 7.7999795133934957e-01  7.2198506595762235e-01 5.5474453919826272e-01 5.8371083935243795e-01  6.8114329796107853e-01 4.1762115839181058e-01 6.5139963993912364e-01  6.4758548261401494e-01 3.3677768190693069e-01 6.3351414161737130e-01  7.1375788503244331e-01 7.5133083308607174e-01 2.8465494265737362e-01  6.8789965718968471e-01 2.1020369713243559e-01 8.5126902346080191e-01  6.8738728449919528e-01 2.0921311008589424e-01 8.5063591147658535e-01  7.3457717855336535e-01 3.1522307697647378e-01 8.6991673366872868e-01  7.1882435856458138e-01 2.8567233051617241e-01 8.6559531141960100e-01  6.5030064603979265e-01 1.5224171378161702e-01 7.8083961442089034e-01  6.3037819036581766e-01 3.3468039530277294e-01 5.7378781069003271e-01  5.9428649953701707e-01 2.8050033105919103e-01 4.8480929697910158e-01  4.9092386639046676e-01 1.2802610062649733e-01 1.5140358128819770e-01  6.9136090891649726e-01 2.1533480260088003e-01 8.5615889853741312e-01  6.9082382952033994e-01 2.1467304380027211e-01 8.5532878935094014e-01  4.9039485205533268e-01 1.9510133307819846e-01 1.0913296479392660e-01  6.5068966855971078e-01 1.5293059075441745e-01 7.8168925335551254e-01  7.5859921823337606e-01 3.8509576373846710e-01 8.4078310823891145e-01  5.4868484920804628e-01 9.0343459251419289e-02 4.2014378172839001e-01  5.6229486388651884e-01 5.2306662552920058e-01 1.1808439041479660e-01  5.9482381317106736e-01 5.9895585998760126e-01 1.5382961800548833e-01  5.0449938311422537e-01 9.9688346533881672e-02 2.2230765116650536e-01  6.8057735246184103e-01 1.9695649390233927e-01 8.4114525056215694e-01  5.4761297099095718e-01 1.2771943719595563e-01 4.0359229265509039e-01  5.9663463521934790e-01 6.0205396531622579e-01 1.5690311126731474e-01  5.2556505237762952e-01 3.9429663655886354e-01 9.7307426292224330e-02  7.4786666594788198e-01 3.4817951333703318e-01 8.6097631179794187e-01  6.8520285106728107e-01 2.0444557622549706e-01 8.4811122641346548e-01  5.6072084435559821e-01 9.5108090845998666e-02 4.7038321033465141e-01  5.3902434140797295e-01 9.0190790794376127e-02 3.7807523788258668e-01  5.7766255541313716e-01 1.0122138127424435e-01 5.3951744443506577e-01  4.8682344353794565e-01 1.5836824456919402e-01 1.1816873591384380e-01  5.4734238709315208e-01 4.7629858229878652e-01 1.0764965034835131e-01  6.6935327858763038e-01 4.1591524237813804e-01 6.1929273862652945e-01  7.6277815801