<?xml version="1.0"?>
<VTKFile type="UnstructuredGrid"  version="0.1"  >
<UnstructuredGrid>
<Piece  NumberOfPoints="600" NumberOfCells="1069">
<Points>
<DataArray  type="Float64"  NumberOfComponents="3"  format="ascii">239.8 188 0  250.2 180 0  258.2 172.4 0  257 169.4 0  259.9 157.4 0  258.7 150.3 0  261 143.5 0  251.7 144.4 0  250 138.7 0  247 138.1 0  245.2 130.8 0  247.3 126.4 0  242.7 118.6 0  231.2 107.7 0  226 102.4 0  226.5 93.90000000000001 0  224.5 91.19999999999999 0  224.5 84.09999999999999 0  234.5 73.80000000000001 0  228.4 68.90000000000001 0  230 70 0  233.4 68 0  222.7 61.5 0  220.6 45.5 0  223.4 49.40000000000001 0  224 47 0  221.8 43.09999999999999 0  221 38.40000000000001 0  219.5 38.5 0  219.4 41.69999999999999 0  217.1 36.90000000000001 0  209.7 36 0  209.5 31.69999999999999 0  205.1 29.90000000000001 0  201.5 30.40000000000001 0  199.2 38.69999999999999 0  201.8 41.40000000000001 0  194.8 53.80000000000001 0  196.1 57.69999999999999 0  193 59 0  191.4 66.09999999999999 0  193.5 66.5 0  194.1 64.40000000000001 0  195.6 64.69999999999999 0  195.4 72.40000000000001 0  199.5 77.30000000000001 0  197.7 86.90000000000001 0  200.6 87.5 0  201.5 91 0  198 94.80000000000001 0  198.6 100 0  197.3 105.4 0  198 109.5 0  197 112.7 0  198.3 116.1 0  201.3 122 0  207.2 121 0  208.1 126.7 0  205.6 127.9 0  209.1 134.9 0  210.9 144.4 0  210.1 147.9 0  213 148.4 0  215.4 149.3 0  215.1 152.8 0  219.9 159.7 0  220.3 163.2 0  218.7 164.9 0  219.9 166.7 0  221.9 169.7 0  220 170.3 0  224.9 174.7 0  229.8 177.4 0  229.7 181 0  228 172.9 0  239 178 0  240.4 180 0  239 181.5 0  241.2 185.9 0  242.95 187.99 0  241.113414658978 187.995830429654 0  242.142964269982 187.9925620181905 0  243.6619187087475 187.2054164851183 0  244.631513060971 186.1368566403919 0  245.9520480703466 184.6815359886801 0  247.7505449816197 182.6994683581873 0  252.8666666668011 177.466666666539 0  255.5333333336077 174.9333333330727 0  257.9666666666661 165.4000000000025 0  258.9333333333339 161.3999999999974 0  259.3000000000018 153.8500000000108 0  259.849999999995 146.9000000000149 0  256.350000000011 143.9499999999989 0  250.8500000000015 141.5500000000051 0  246.1000000000042 134.450000000017 0  245.0000000000049 122.5000000000082 0  239.8250000000041 115.875000000004 0  236.9500000000083 113.1500000000079 0  234.0750000000041 110.4250000000039 0  228.6000000000041 105.0500000000042 0  226.25 98.15000000000002 0  224.5 87.65000000001388 0  227.8333333333301 80.66666666667 0  231.1666666666644 77.23333333333571 0  232.2500000000014 71.90000000000116 0  230.8999999999995 68.45000000000009 0  225.5500000000108 65.20000000001409 0  222.9333333333329 57.46666666667507 0  223.1666666666663 53.43333333333877 0  218.2500000000016 39.30000000000339 0  213.4000000000277 36.45000000000337 0  200.3500000000025 34.54999999999097 0  199.4666666666726 45.53333333332282 0  197.1333333333385 49.66666666665756 0  193.5499999999978 61.6999999999891 0  193.3999999999962 69.24999999999406 0  197.4499999999954 74.84999999999454 0  198.6000000000007 82.09999999999631 0  199.7500000000014 92.8999999999985 0  198.2999999999997 97.39999999999726 0  197.950000000001 102.699999999996 0  199.7999999999944 119.049999999989 0  204.2499999999946 121.5000000000009 0  207.6499999999987 123.8499999999919 0  207.35 131.4 0  209.9999999999998 139.649999999999 0  217.4999999999938 156.249999999991 0  223.4 172.2 0  234.349999999995 179.5000000000016 0  243.6879031604435 137.0140197666175 0  200.5383884465266 74.3488835611292 0  236.0631303447202 117.0934887033495 0  255.2860706566257 162.4962097513293 0  210.288597171716 124.9641969758756 0  200.5494091764226 101.6938959209836 0  221.0463142825589 155.4583368622661 0  213.2458552033902 137.0182369603261 0  202.5715495252679 76.72215432732189 0  203.3954031521662 88.63888283314805 0  204.2685850489914 91.3771816532193 0  227.6002395557545 108.6285485308707 0  203.628067965887 73.80056467640915 0  205.5882193517793 76.19298591547215 0  219.3893731065793 59.36381842571261 0  222.6962970705901 100.2685345181304 0  206.2147206748961 89.23684943534887 0  224.5717795045128 68.90112930058935 0  207.1505150846513 91.97409496002633 0  206.6973804802006 73.20614062920998 0  209.0198262461606 75.84435446174592 0  204.6828826698789 70.78585325419728 0  244.5505030757118 140.1958289722003 0  241.2713205316759 139.2760911012237 0  242.0887623359319 142.523888210035 0  238.8201809392432 141.5810446831215 0  239.6254755922404 144.8663288044098 0  238.0282380951174 138.3361101328854 0  235.5650201404635 140.6403522599634 0  234.7868703265066 137.3765638391416 0  232.3671992655526 139.7040340002533 0  231.5735594060041 136.4371341666237 0  203.6025996895933 45.13245413868078 0  209.0094500142995 89.77916893533093 0  234.0048963149566 134.0619286436701 0  230.7388584519252 133.0932019642386 0  256.0202376970822 152.4353991158102 0  233.1239077827668 142.9168616681826 0  229.9476468053365 142.0041066209365 0  207.8316386186595 70.1760146256688 0  205.8080150778045 67.77328389450008 0  210.1255397865818 92.58553759086743 0  249.9530000513888 175.7831884132348 0  230.7520925362455 145.2114145624654 0  227.5614746466729 144.2879078440436 0  226.855634298717 141.1029513419209 0  221.109901317114 86.07738557802102 0  221.3898452401857 82.41394785245797 0  233.1906280944642 130.7538222264552 0  229.849944657733 129.8156996791429 0  227.4514186000422 132.1240250470279 0  226.5693510741891 128.7503487535618 0  208.0732626511005 94.86195720558288 0  211.0579654481564 95.54875779444082 0  209.0041892644107 97.86214677695602 0  216.7276956906574 41.503774594868 0  224.4517166451922 143.3327513982825 0  222.7890579510523 161.0597281586643 0  209.0698801997012 67.10609773523754 0  206.9141710660066 64.58868367949086 0  211.5265666272545 70.15591236789595 0  218.2872405225432 83.97244872861398 0  207.7311279855657 86.71297189445447 0  242.9081583239214 145.8040728889821 0  240.4621480942806 148.1601866910276 0  243.7562457682554 149.0907552716282 0  241.3145175595932 151.4726760652338 0  244.57940289053 152.3666461928266 0  242.1615185950008 154.7794567484269 0  238.8718789959482 153.837018554675 0  239.7122407256576 157.1523621063041 0  236.4289375384117 156.2070529629317 0  237.2412111497984 159.5248795948406 0  240.5638486223294 160.4901132255754 0  238.1023772270576 162.8725976094984 0  241.406699334305 163.8359650846702 0  238.9630278156374 166.2175426435888 0  234.7361516891476 161.8928266488476 0  213.124654294145 93.56046727196781 0  212.0434836741439 98.5447165103807 0  209.9504013355788 100.9044854564887 0  213.0958854424699 101.5871381629478 0  210.9302285957408 103.9580876602797 0  214.0010858928389 104.7096094485587 0  211.9141605791952 107.0615795921763 0  214.9890206858068 107.8102538193681 0  212.9269247290344 110.1901972673309 0  216.0786784436673 110.8721476340726 0  209.7617142319936 109.4041944495815 0  213.932211035267 113.2627867337288 0  217.0813395790477 113.941453344218 0  218.441750941724 80.63655841437071 0  242.2412500877879 167.1781012200828 0  229.2280100589433 126.5393356137107 0  225.9203624138538 125.4446005931909 0  223.3571983269889 127.7265579015054 0  222.6136526124249 124.535547281476 0  225.3056527306165 122.1016033222114 0  220.3254947810712 126.7409252226328 0  201.0777098578984 116.3274181811247 0  219.7857338015156 123.3740225787907 0  228.3312248450329 147.5116593523427 0  223.7608055035202 140.2236832285434 0  221.3299816979287 142.3937311365609 0  245.4512147769152 155.7068319139237 0  214.9140854911084 116.3016229600955 0  241.4261562479406 177.9745543740275 0  202.8157779574545 68.56000166221941 0  240.0703975438099 175.788326095019 0  222.1092806876692 145.4935485219417 0  220.9446699547174 129.9892194059113 0  217.7131509102484 129.0121441451285 0  231.966766611991 173.6290727753235 0  244.7035101352062 164.8150950666352 0  215.4589412711449 82.35047797613059 0  218.5358717759109 108.3057574313637 0  210.0910095413371 63.89870618133642 0  207.8879031726656 61.27101234314142 0  219.5945508510063 49.26517889117938 0  204.4640092132492 79.16637174968085 0  219.054165325738 63.24726086273807 0  245.5364828646638 168.1932520030346 0  204.1722248369768 62.21708558088665 0  205.6821920907016 58.50393459316535 0  209.6155639374877 57.86856426712311 0  196.5553895895766 69.81481204083099 0  235.6123608690412 152.8874163252039 0  233.2157615582107 155.2532908181879 0  240.6837858645011 122.4172544901715 0  210.8141135626509 127.8682271622992 0  245.3812170314571 182.2522052029404 0  206.9456715292139 54.99559933887414 0  210.5075513436263 54.0697256538542 0  207.9169085133073 103.1765167571325 0  223.2431750051092 164.070583057325 0  225.7483443677002 162.1151723759482 0  206.0378951001477 96.94148998994152 0  242.6796154699829 175.6597339900036 0  214.6838055972238 146.7252062992904 0  211.9990465678071 115.5576487680909 0  221.4613603554043 78.78973924681317 0  218.3291154698718 77.0769598533563 0  200.3358005877804 107.1120377748188 0  247.4072167499741 149.4171847419639 0  211.6397508657857 39.55684201930068 0  226.8243927196049 72.17619845696734 0  215.354291780634 85.55308818793476 0  236.5600255652378 131.6759521500912 0  226.0129792461303 165.2837912620818 0  218.060680211082 117.0067370946569 0  220.2726382852709 114.6051380114157 0  212.8793579154693 118.3711453694285 0  215.022609143906 99.35520341734289 0  203.0459334752391 85.71272568041367 0  202.8915272398735 55.67723839797077 0  220.5465456567309 139.1747891305704 0  239.6921265383864 169.3260213165692 0  236.6712881821608 168.5826958099534 0  218.0125893802946 141.5012621699478 0  201.3193403438535 110.3399099823547 0  203.3799271438462 107.9393487975089 0  248.1978655115356 165.7601936670729 0  248.8804221900089 169.2105116441819 0  237.1867529048816 147.1869371163321 0  236.7369473929319 176.2832209442509 0  247.3010859001464 162.3677476585113 0  204.3727171343656 110.8209535355564 0  235.7766571132668 128.3537547116865 0  217.8932394506906 150
[...]
<PointData  Vectors="f_12"> 
<DataArray  type="Float64"  Name="f_12"  NumberOfComponents="3" format="ascii">7.9923376935256429e-01 6.5752477295941414e-01 5.4765613457498463e-01  7.9923368355226065e-01 6.5752460782998112e-01 5.4765629875344979e-01  7.9923324201922552e-01 6.5752572706681023e-01 5.4765422564210609e-01  7.9923345121214695e-01 6.5753109743771099e-01 5.4764646290328556e-01  7.9935357695467901e-01 6.5751663158531271e-01 5.4777891948107693e-01  7.9961262283573076e-01 6.5423365418220381e-01 5.5288595269249063e-01  7.9979069090136945e-01 6.5476834882439083e-01 5.5219951994512662e-01  7.8883251887984240e-01 5.7500668410003375e-01 6.5468545592417693e-01  7.2522506996480041e-01 3.4229879535809454e-01 8.3148140801480208e-01  6.6530584379726576e-01 2.3167695704638377e-01 7.6807386323498916e-01  5.1008148860876634e-01 1.3161632453201338e-01 2.2930025348010458e-01  4.9224064378452653e-01 1.5090683145675612e-01 1.4447269573840149e-01  4.9070836935000350e-01 2.0707286993218660e-01 1.0369613731635632e-01  5.0102925545166488e-01 1.9381694717585585e-01 1.5222845433385432e-01  5.7626845005697702e-01 1.5199513766807793e-01 4.9937917204886306e-01  7.6279682789419678e-01 4.5505551098399327e-01 7.7766761869231438e-01  7.8769983423958068e-01 5.6068752259628363e-01 6.7307020796582551e-01  7.9990059450383744e-01 6.4944607313053881e-01 5.6019932469520273e-01  7.9931153033737457e-01 6.6829753093733923e-01 5.3177622989052720e-01  7.9908923243973495e-01 6.5167256725938238e-01 5.5617886904078684e-01  7.9918550808113864e-01 6.5803327418628854e-01 5.4689548249406594e-01  7.9921082524029463e-01 6.6084020862892978e-01 5.4278524713466436e-01  7.9777520670609869e-01 6.2297970358527610e-01 5.9645250172653641e-01  7.8883162548575791e-01 7.0371466601781885e-01 4.6792448109486579e-01  7.9347997123637071e-01 6.6488241586616736e-01 5.3146157465899724e-01  7.8902518423138357e-01 7.0602148840261958e-01 4.6464976997703383e-01  7.8732050878716398e-01 7.1465907746145585e-01 4.4943890614723064e-01  7.8546273256106103e-01 7.2897620049125733e-01 4.2521708188428703e-01  7.8548082815798581e-01 7.2840876518468922e-01 4.2610784497132692e-01  7.8557871549200353e-01 7.2369078892439898e-01 4.3352199124186303e-01  7.7878659106438897e-01 7.4776144021140090e-01 3.8822448979386454e-01  7.6798157543294931e-01 7.7014447419025833e-01 3.3978855653883344e-01  7.6186120496385390e-01 7.8040495118090614e-01 3.1577549644222103e-01  7.6005248570460060e-01 7.8294061603221798e-01 3.0939016057458518e-01  7.5973272329069774e-01 7.8341329155337869e-01 3.0821611551421724e-01  7.6561332299874596e-01 7.7426487438359515e-01 3.3033383376731096e-01  7.7232190745596885e-01 7.6022708531645100e-01 3.6079740928996357e-01  7.9394579853448255e-01 6.8224892316061991e-01 5.0584205025853612e-01  7.9624230536815965e-01 6.5771193562741459e-01 5.4467276226877814e-01  7.9727228930933491e-01 6.4442800694419777e-01 5.6514270964273483e-01  7.9809291796404891e-01 6.1347020761210636e-01 6.1017888674425746e-01  7.9808625118236842e-01 6.1379433222024404e-01 6.0971538577442264e-01  7.9778785863997870e-01 6.3038811994137234e-01 5.8587905832895326e-01  7.9788892776195341e-01 6.2518391213298763e-01 5.9339516415304872e-01  7.9813309895370954e-01 6.0751581365053797e-01 6.1854634359338356e-01  7.9834249440502369e-01 6.0452634562467189e-01 6.2288834986792518e-01  7.9898578213570848e-01 6.0998745403413601e-01 6.1584717607328332e-01  7.9918094628905267e-01 6.1158859372931385e-01 6.1378622726041443e-01  7.9933875512468244e-01 6.0943995094001546e-01 6.1699602362411732e-01  7.9771211835840206e-01 5.9125817010364934e-01 6.4079620755370137e-01  7.8610468336710215e-01 5.2384614160193088e-01 7.1811486463464291e-01  7.5310300605113223e-01 3.8970296371175395e-01 8.3324652402365085e-01  6.9878862985216239e-01 2.5043162834917043e-01 8.5662208398173612e-01  6.5466708265372198e-01 1.7476749082950965e-01 7.8945700128571850e-01  6.1006188955591867e-01 1.2813880270079026e-01 6.5990638927425072e-01  5.4845396078848507e-01 9.5618817710689030e-02 4.2188901696507974e-01  5.1286106504171491e-01 1.2624438487696174e-01 2.4394862887453397e-01  4.8935395256008957e-01 1.4374138687826482e-01 1.3753934002261095e-01  4.8826381577544586e-01 1.4059500162560903e-01 1.3520452287139859e-01  5.0149265659111864e-01 1.2082354659499572e-01 2.0000813094361014e-01  6.2876009605779037e-01 1.5915705120399168e-01 7.0789673825205668e-01  6.7375193939794609e-01 2.0688479148224345e-01 8.3025309307781148e-01  6.8506109568171580e-01 2.3526362198204359e-01 8.3314876943995564e-01  7.3189382506530021e-01 3.5064056327123255e-01 8.3316493827611460e-01  7.7921258225851397e-01 5.1013710046370020e-01 7.3004007225598999e-01  7.9977723507899290e-01 6.4304986317560242e-01 5.6957159081600328e-01  7.9969271513390083e-01 6.5553221714734866e-01 5.5102421797391343e-01  7.9952835919599874e-01 6.5698260040464929e-01 5.4873105391920196e-01  7.9943512212648427e-01 6.5734487408670950e-01 5.4810860984583498e-01  7.9931804167664744e-01 6.5759414282922513e-01 5.4763123083432308e-01  7.9930977766993450e-01 6.5764607133791775e-01 5.4754668417593755e-01  7.9924610789157091e-01 6.5757323432872516e-01 5.4759573414951968e-01  7.9923319709339369e-01 6.5752818050770112e-01 5.4765054647707589e-01  7.9923316385066823e-01 6.5752516849929799e-01 5.4765498050560590e-01  7.9924475564783126e-01 6.5756302456079219e-01 5.4760961153846788e-01  7.9923360366868124e-01 6.5752645346142968e-01 5.4765348568365446e-01  7.9923365692199766e-01 6.5752503231895609e-01 5.4765564416307322e-01  7.9923370658269077e-01 6.5752478521265956e-01 5.4765605736836931e-01  7.9923376287182801e-01 6.5752475695866264e-01 5.4765615220532460e-01  7.9923376639639365e-01 6.5752476705952623e-01 5.4765614054213074e-01  7.9923376751167741e-01 6.5752476865782139e-01 5.4765613922171852e-01  7.9923376684825731e-01 6.5752476753123978e-01 5.4765614026793685e-01  7.9923376484646624e-01 6.5752476469303189e-01 5.4765614259282513e-01  7.9923376052192940e-01 6.5752475761848039e-01 5.4765614901400494e-01  7.9923375322543655e-01 6.5752474241596659e-01 5.4765616468984557e-01  7.9923373435787237e-01 6.5752471106125843e-01 5.4765619343188809e-01  7.9923357985321786e-01 6.5752467856400698e-01 5.4765609640849433e-01  7.9923341792650837e-01 6.5752499438474032e-01 5.4765547623850053e-01  7.9924106883660928e-01 6.5755731420218810e-01 5.4761466466619035e-01  7.9927445903848626e-01 6.5758819892619114e-01 5.4759976021996382e-01  7.9949430959011669e-01 6.5679194813613406e-01 5.4898358080506549e-01  7.9971645251051604e-01 6.5373778749710865e-01 5.5366571747065352e-01  7.9933063639307211e-01 6.4698823796253313e-01 5.6352735088631500e-01  7.5812626847482434e-01 4.4183307972065794e-01 7.8289324977637487e-01  5.6118367677288750e-01 1.3191239075676819e-01 4.5017720097439373e-01  4.8974332082140160e-01 1.7464408575209833e-01 1.2043230273825985e-01  4.9264855919214878e-01 2.2877745294186846e-01 9.6986836137163426e-02  4.9455636475053971e-01 2.3825452306065759e-01 9.7826952401242284e-02  4.9638065554037653e-01 2.2657069164680901e-01 1.1233543996163690e-01  5.1844607161518563e-01 1.5761954027124450e-01 2.4809425202331559e-01  6.9317636957971418e-01 2.7441528251492020e-01 8.2366914450748907e-01  7.9866077403143654e-01 6.2963218814746491e-01 5.8801821522698861e-01  7.9954375415564860e-01 6.6034443799007081e-01 5.4380994914658110e-01  7.9935619436424454e-01 6.6660571243595190e-01 5.3434061465383054e-01  7.9928618125757922e-01 6.6612183720941154e-01 5.3499528015342812e-01  7.9919495378685435e-01 6.5908103742252455e-01 5.4536274443171806e-01  7.9857612146320300e-01 6.3162401656474909e-01 5.8482661119246060e-01  7.9669574560359324e-01 6.3035335832678641e-01 5.8493744283729332e-01  7.9519410961443948e-01 6.4654617535036063e-01 5.6009091768027242e-01  7.8124494263447786e-01 7.3959017894107193e-01 4.0384839532080297e-01  7.7518131346992947e-01 7.5617923856086489e-01 3.7069524829607137e-01  7.6180597951861728e-01 7.8054999669978020e-01 3.1548712182423594e-01  7.8363475871101618e-01 7.3036695209607783e-01 4.2095893256416517e-01  7.9033560403812442e-01 7.0493949425657787e-01 4.6762424398783320e-01  7.9749693892489182e-01 6.3902115674463356e-01 5.7318319771602277e-01  7.9810103007075051e-01 6.1180735050634105e-01 6.1251763957967054e-01  7.9819134443610229e-01 6.0497525233883187e-01 6.2213311572308860e-01  7.9869274607686314e-01 6.0720793608233814e-01 6.1946538869438894e-01  7.9871815484802677e-01 6.0056753416983077e-01 6.2884643558557418e-01  7.9470164154618739e-01 5.7097272369891061e-01 6.6547390135662376e-01  7.7122352007314443e-01 4.5684878012849678e-01 7.8210406218923079e-01  5.6884205388845210e-01 1.0263788353901832e-01 5.0603128620362647e-01  5.3727872431848234e-01 1.0310036820292627e-01 3.6586206418889911e-01  4.9502705732211877e-01 1.4441568899756069e-01 1.5921397818833846e-01  4.9073597146783304e-01 1.3484246194244073e-01 1.4822989425762589e-01  5.4146985936392211e-01 1.1121496890103634e-01 3.7881653643892754e-01  7.9459970346410813e-01 5.9407103555303409e-01 6.3448051450108411e-01  7.9926153442436321e-01 6.5758895504265846e-01 5.4758670989527569e-01  7.9923334006938229e-01 6.5752558716870135e-01 5.4765452359969202e-01  5.9791914997189854e-01 1.5022041520627102e-01 5.9171330770375263e-01  7.9823879525292452e-01 6.0491872199091568e-01 6.2225275796407387e-01  4.9344333381239430e-01 2.3355363398467274e-01 9.6811645097739416e-02  7.9926763070968698e-01 6.5757643391694476e-01 5.4761089810043750e-01  4.9088642377892461e-01 1.4877244518811025e-01 1.4046776752902912e-01  7.7662066752743408e-01 4.8157774596484371e-01 7.5957529604602392e-01  7.9590960060031024e-01 6.0554063729496788e-01 6.1973918629069480e-01  5.2071048305522716e-01 1.1301343597907750e-01 2.8676803935164935e-01  7.9837273074254644e-01 6.0525819526046609e-01 6.2189717758906293e-01  7.9942298133312706e-01 6.1325344897148437e-01 6.1168739787451554e-01  7.9915670702195452e-01 6.0898234638489257e-01 6.1749211868711240e-01  5.0547773455058720e-01 1.7377679552689715e-01 1.8364937396212261e-01  7.9829507553776702e-01 6.0608986921535735e-01 6.2067290949548437e-01  7.9844378602727573e-01 6.0730059687056082e-01 6.1911527594863325e-01  7.9716120394727952e-01 6.2574555676341559e-01 5.9195399877145538e-01  6.4695183414198121e-01 2.0519788540156417e-01 7.3303643292837262e-01  7.9943251057989784e-01 6.1448693761976214e-01 6.0998412172735983e-01  7.9884959357935204e-01 6.3902699451995437e-01 5.7438849829208483e-01  7.9834471405697882e-01 6.0454436213698248e-01 6.2301238127900538e-01  7.9836741259928679e-01 6.0821290178880549e-01 6.1777699197370661e-01  7.9856661730663481e-01 6.1113278663829540e-01 6.1386850197491216e-01  7.9823880090045329e-01 6.0884316722216314e-01 6.1678487102285773e-01  6.7916882912937937e-01 2.4658005354429946e-01 8.0334309816465510e-01  6.2927814868732757e-01 1.7356546630870304e-01 6.9828098625315915e-01  7.0937397088192311e-01 3.0360056128254043e-01 8.3282184955724403e-01  6.6696070122592210e-01 2.2135643258898904e-01 7.8914139785313653e-01  7.3934123653956418e-01 3.7878108774880864e-01 8.2115073306621778e-01  5.9043679425088069e-01 1.3805069598882602e-01 5.7183835676812533e-01  6.2672353399593062e-01 1.6801576991642389e-01 6.9324156380144464e-01  5.6083161858331676e-01 1.2335354853375546e-01 4.5588276252990767e-01  5.9252265011614180e-01 1.3848350987940847e-01 5.8000209330082619e-01  5.3944347906552570e-01 1.2045417326526800e-01 3.6420815336445678e-01  7.8057558602080102e-01 7.3820368151754057e-01 4.0522664081478305e-01  7.9920203377038701e-01 6.1455085622572270e-01 6.0972361689044607e-01  5.2124669555521541e-01 1.2588015004013337e-01 2.8130212050048403e-01  5.1033176436945982e-01 1.3548579034404026e-01 2.2842527700739021e-01  7.9956139012214078e-01 6.5470991059436889e-01 5.5212739592150384e-01  6.6757256061909576e-01 2.2089413094702390e-01 7.9139598992309301e-01  6.3218779364686084e-01 1.7330560266433837e-01 7.0924748002607840e-01  7.9828814385359215e-01 6.1069681563287903e-01 6.1423627067778530e-01  7.9813108232611119e-01 6.1353394819264218e-01 6.1011750628457928e-01  7.9644348030088163e-01 5.9434367257008758e-01 6.3551086379306032e-01  7.9923358183924686e-01 6.5752523702879040e-01 5.4765527007705017e-01  7.0894946607523268e-01 2.9928220093208069e-01 8.3582310451927666e-01  6.7677029338953454e-01 2.3556843826263485e-01 8.0656288041676638e-01  6.0159904376148565e-01 1.4423232280742743e-01 6.1288534940018269e-01  7.9974230358335219e-01 6.3936273112326991e-01 5.7478704801997205e-01  7.9982082652448927e-01 6.4686011021607581e-01 5.6388837394895885e-01  5.0205700133257047e-01 1.4976383227237702e-01 1.8485515569763464e-01  4.9750355738142837e-01 1.6309503303465034e-01 1.5795190795712530e-01  5.0299899053140518e-01 1.4551564359607233e-01 1.9140885399147253e-01  4.9426672779745118e-01 1.7326127721973267e-01 1.3871021657047009e-01  7.9333190732001513e-01 5.7236082754373085e-01 6.6253434403488387e-01  7.8646908531468873e-01 5.4030524418544090e-01 6.9810357291049641e-01  7.7783959848222450e-01 4.9902512544499955e-01 7.4043975145635621e-01  7.8269057152351718e-01 7.3303703188285529e-01 4.1572991171831619e-01  6.4405812952687469e-01 1.8661962973401827e-01 7.4089681231097693e-01  7.9982495908373430e-01 6.5150192461906609e-01 5.5709368845270291e-01  7.9812759678507061e-01 6.1455139697074501e-01 6.0868432801170236e-01  7.9784489505740175e-01 6.2060936200406236e-01 5.9987571565516118e-01  7.9838406951755103e-01 6.1319817321977821e-01 6.1081329271525941e-01  7.9984524767715492e-01 6.3915002016313582e-01 5.7512847097736530e-01  7.9948723529820420e-01 6.1814036973184849e-01 6.0485175339585695e-01  7.6570358805164096e-01 4.6680504342588308e-01 7.6491638159780828e-01  7.8009934103168987e-01 5.2454034545685146e-01 7.1193063156106118e-01  7.9056451909144587e-01 5.7801017515039133e-01 6.5262264548618465e-01  7.9540364611859860e-01 6.0744759511215685e-01 6.1652847700296298e-01  7.9816040114106301e-01 6.3047968771653939e-01 5.8624511320961914e-01  7.9926372882414032e-01 6.4234745317293673e-01 5.7002889548642222e-01  7.9807303056456347e-01 6.2842942645367084e-01 5.8912709717362288e-01  7.9965630977840740e-01 6.4974043499769263e-01 5.5954437753901354e-01  7.9929837908302503e-01 6.4214447669165309e-01 5.7035371695745407e-01  7.9969186321004671e-01 6.5401659036805881e-01 5.5327032170247048e-01  7.9958456266528555e-01 6.5608514181553323e-01 5.5011228344473229e-01  7.9946669357973288e-01 6.5705440211255972e-01 5.4856815382967961e-01  7.9937057378791698e-01 6.5742393543572886e-01 5.4793192682442537e-01  7.9930691237523110e-01 6.5754945017932831e-01 5.4768714095672189e-01  7.9958592247340399e-01 6.5618909227432543e-01 5.4995938940998135e-01  7.9153007775762652e-01 5.6923302670833587e-01 6.6514859150144789e-01  7.5961652308565475e-01 4.3390139340914746e-01 7.9357132844868195e-01  7.4136988695935468e-01 3.7425968214332955e-01 8.2829083094647915e-01  7.0438833596611417e-01 2.8549652621189786e-01 8.3676858589870462e-01  6.7806074598908350e-01 2.3321491059964611e-01 8.1125138323688806e-01  6.2972143864118180e-01 1.6954220599895348e-01 7.0210638028651995e-01  6.0512263593328142e-01 1.4494653619103329e-01 6.2571444092300932e-01  5.6567995185638309e-01 1.2490030115866214e-01 4.7542716289587617e-01  5.4972240052032872e-01 1.1930143260140710e-01 4.0964419948974939e-01  5.2592527957938329e-01 1.2537848347875913e-01 3.0191571421107583e-01  5.8711636146281554e-01 1.3075652496938994e-01 5.6193116117700492e-01  5.1789768373897715e-01 1.2719548858175064e-01 2.6591625793327062e-01  5.0546701281109985e-01 1.4560812957929473e-01 2.0169074641335727e-01  7.9951759587492433e-01 6.3859350123484748e-01 5.7561559578143773e-01  7.9926912374001879e-01 6.5756886826169481e-01 5.4762347403582201e-01  4.9296979008986053e-01 1.9061883213030534e-01 1.2269227385918652e-01  4.9170416223026187e-01 1.9603903777110307e-01 1.1446395040938570e-01  4.9206655891795065e-01 1.7728465675008004e-01 1.2764716938491236e-01  4.9069676655685379e-01 1.9305160463212057e-01 1.1256938726845435e-01  4.9169337957964254e-01 2.0938483069868716e-01 1.0596216343562774e-01  4.9051465786790610e-01 1.7597755187758110e-01 1.2251722617456538e-01  5.8765290967368100e-01 1.1473714476499698e-01 5.7707477217933667e-01  4.9018690424100869e-01 1.8666818575751642e-01 1.1465253896243818e-01  7.4399468677524783e-01 3.9063806991768169e-01 8.1665751924583252e-01  5.7677347066684215e-01 1.2775308483787715e-01 5.2124280473745632e-01  6.1408993878660700e-01 1.5304528513211463e-01 6.5582172182220488e-01  7.9963179289372199e-01 6.5052369399510701e-01 5.5836954969920283e-01  5.0170032179539847e-01 1.4740730674276226e-01 1.8491976476003080e-01  7.9923362320756075e-01 6.5752566026917725e-01 5.4765468089016156e-01  7.9813112254810348e-01 6.1222114010864859e-01 6.1195872232381188e-01  7.9923387828636117e-01 6.5752821459724675e-01 5.4765112942647598e-01  6.8755315030604802e-01 2.5364853714430108e-01 8.2085051522067165e-01  4.9408578424302363e-01 1.5746989296455399e-01 1.4782813059671118e-01  4.9158373268852684e-01 1.5658400625916988e-01 1.3854080841049685e-01  7.9923708688958361e-01 6.5754326319419498e-01 5.4763179689845376e-01  7.9930362654026776e-01 6.5754780031814164e-01 5.4768656454273812e-01  7.9953821342276610e-01 6.3193318173913093e-01 5.8523571714447398e-01  5.3742083251444206e-01 1.2523365277630633e-01 3.5229100226744137e-01  7.9777598484152012e-01 6.2050310492431238e-01 5.9996287490056543e-01  7.9721384590669242e-01 6.3080913879617251e-01 5.8475161437765244e-01  7.9228967362064473e-01 6.7459491284789430e-01 5.1566341028046858e-01  7.9856841467436379e-01 6.0771560535293057e-01 6.1864574039041420e-01  7.9790619183049383e-01 6.2096872095411471e-01 5.9942342015655947e-01  7.9924828041546425e-01 6.5755807899916152e-01 5.4762019998920886e-01  7.9742344836507517e-01 6.3120232324796421e-01 5.8438215696279117e-01  7.9620282118715002e-01 6.4699915044300604e-01 5.6037389802275828e-01  7.9609193362793196e-01 6.4292143826472814e-01 5.6621608658836586e-01  7.9811427191815110e-01 6.1018624789363396e-01 6.1479629615260223e-01  7.9544468329398021e-01 6.0691147911474996e-01 6.1732071149232648e-01  7.9831730746219676e-01 6.3017239250067558e-01 5.8686100073748004e-01  4.9069249570576551e-01 1.9179546410108436e-01 1.1327809339571067e-01  4.8928026405269243e-01 1.4506657171971712e-01 1.3651786122491180e-01  7.9923373303556422e-01 6.5752473945972034e-01 5.4765615008687329e-01  7.9417608898037917e-01 6.6529030988513094e-01 5.3145579869475290e-01  7.9392465868499329e-01 6.6246227357825826e-01 5.3540261425437952e-01  7.2223563007711844e-01 3.2109937248211395e-01 8.4338262727432345e-01  7.9959971186351686e-01 6.5641906559359942e-01 5.4963195029747458e-01  7.9972883214075774e-01 6.5485788882270579e-01 5.5206047893557464e-01  7.8946910307341844e-01 5.4869281626915434e-01 6.9007168100121075e-01  7.9923377363895853e-01 6.5752735924076322e-01 5.4765230100302764e-01  6.8294744818677122e-01 2.3667821722734478e-01 8.2345429236121526e-01  5.1267567784547452e-01 1.2889481619294713e-01 2.4231342719505941e-01  7.9944822448433694e-01 6.4563087814475195e-01 5.6533146705820314e-01  7.9915557029617701e-01 6.3401097774946691e-01 5.8189698744415319e-01  7.2512869284456349e-01 3.1483930118570347e-01 8.5575999336809960e-01  7.9540629795783524e-01 6.0973135419126034e-01 6.1335096198254535e-01  7.7531430739016416e-01 7.5439653347270053e-01 3.7366696782462316e-01  7.9916951675289882e-01 6.5370881138311188e-01 5.5325966445056585e-01  7.9979186080866194e-01 6.3181733180230593e-01 5.8566313988426966e-01  5.0901826712464360e-01 1.3581923078600025e-01 2.2266187362658160e-01  7.9947079711185209e-01 6.5717046169559035e-01 5.4839982163974454e-01  4.9599497510316531e-01 1.6902188352833275e-01 1.4828260360281140e-01  4.9888131430155885e-01 1.6833096462547351e-01 1.6026577916916113e-01  4.9998108557286342e-01 1.4601789332135123e-01 1.7867035090264680e-01  7.2976127641801103e-01 3.4787426110679343e-01 8.3409155964097492e-01  7.9913539628107699e-01 6.1217286472987964e-01 6.1292259354447531e-01  7.9454804124331346e-01 6.6870952304444131e-01 5.2673563405884172e-01  5.5429604646