<?xml version="1.0"?>
<VTKFile type="UnstructuredGrid"  version="0.1"  >
<UnstructuredGrid>
<Piece  NumberOfPoints="600" NumberOfCells="1069">
<Points>
<DataArray  type="Float64"  NumberOfComponents="3"  format="ascii">239.8 188 0  250.2 180 0  258.2 172.4 0  257 169.4 0  259.9 157.4 0  258.7 150.3 0  261 143.5 0  251.7 144.4 0  250 138.7 0  247 138.1 0  245.2 130.8 0  247.3 126.4 0  242.7 118.6 0  231.2 107.7 0  226 102.4 0  226.5 93.90000000000001 0  224.5 91.19999999999999 0  224.5 84.09999999999999 0  234.5 73.80000000000001 0  228.4 68.90000000000001 0  230 70 0  233.4 68 0  222.7 61.5 0  220.6 45.5 0  223.4 49.40000000000001 0  224 47 0  221.8 43.09999999999999 0  221 38.40000000000001 0  219.5 38.5 0  219.4 41.69999999999999 0  217.1 36.90000000000001 0  209.7 36 0  209.5 31.69999999999999 0  205.1 29.90000000000001 0  201.5 30.40000000000001 0  199.2 38.69999999999999 0  201.8 41.40000000000001 0  194.8 53.80000000000001 0  196.1 57.69999999999999 0  193 59 0  191.4 66.09999999999999 0  193.5 66.5 0  194.1 64.40000000000001 0  195.6 64.69999999999999 0  195.4 72.40000000000001 0  199.5 77.30000000000001 0  197.7 86.90000000000001 0  200.6 87.5 0  201.5 91 0  198 94.80000000000001 0  198.6 100 0  197.3 105.4 0  198 109.5 0  197 112.7 0  198.3 116.1 0  201.3 122 0  207.2 121 0  208.1 126.7 0  205.6 127.9 0  209.1 134.9 0  210.9 144.4 0  210.1 147.9 0  213 148.4 0  215.4 149.3 0  215.1 152.8 0  219.9 159.7 0  220.3 163.2 0  218.7 164.9 0  219.9 166.7 0  221.9 169.7 0  220 170.3 0  224.9 174.7 0  229.8 177.4 0  229.7 181 0  228 172.9 0  239 178 0  240.4 180 0  239 181.5 0  241.2 185.9 0  242.95 187.99 0  241.113414658978 187.995830429654 0  242.142964269982 187.9925620181905 0  243.6619187087475 187.2054164851183 0  244.631513060971 186.1368566403919 0  245.9520480703466 184.6815359886801 0  247.7505449816197 182.6994683581873 0  252.8666666668011 177.466666666539 0  255.5333333336077 174.9333333330727 0  257.9666666666661 165.4000000000025 0  258.9333333333339 161.3999999999974 0  259.3000000000018 153.8500000000108 0  259.849999999995 146.9000000000149 0  256.350000000011 143.9499999999989 0  250.8500000000015 141.5500000000051 0  246.1000000000042 134.450000000017 0  245.0000000000049 122.5000000000082 0  239.8250000000041 115.875000000004 0  236.9500000000083 113.1500000000079 0  234.0750000000041 110.4250000000039 0  228.6000000000041 105.0500000000042 0  226.25 98.15000000000002 0  224.5 87.65000000001388 0  227.8333333333301 80.66666666667 0  231.1666666666644 77.23333333333571 0  232.2500000000014 71.90000000000116 0  230.8999999999995 68.45000000000009 0  225.5500000000108 65.20000000001409 0  222.9333333333329 57.46666666667507 0  223.1666666666663 53.43333333333877 0  218.2500000000016 39.30000000000339 0  213.4000000000277 36.45000000000337 0  200.3500000000025 34.54999999999097 0  199.4666666666726 45.53333333332282 0  197.1333333333385 49.66666666665756 0  193.5499999999978 61.6999999999891 0  193.3999999999962 69.24999999999406 0  197.4499999999954 74.84999999999454 0  198.6000000000007 82.09999999999631 0  199.7500000000014 92.8999999999985 0  198.2999999999997 97.39999999999726 0  197.950000000001 102.699999999996 0  199.7999999999944 119.049999999989 0  204.2499999999946 121.5000000000009 0  207.6499999999987 123.8499999999919 0  207.35 131.4 0  209.9999999999998 139.649999999999 0  217.4999999999938 156.249999999991 0  223.4 172.2 0  234.349999999995 179.5000000000016 0  243.6879031604435 137.0140197666175 0  200.5383884465266 74.3488835611292 0  236.0631303447202 117.0934887033495 0  255.2860706566257 162.4962097513293 0  210.288597171716 124.9641969758756 0  200.5494091764226 101.6938959209836 0  221.0463142825589 155.4583368622661 0  213.2458552033902 137.0182369603261 0  202.5715495252679 76.72215432732189 0  203.3954031521662 88.63888283314805 0  204.2685850489914 91.3771816532193 0  227.6002395557545 108.6285485308707 0  203.628067965887 73.80056467640915 0  205.5882193517793 76.19298591547215 0  219.3893731065793 59.36381842571261 0  222.6962970705901 100.2685345181304 0  206.2147206748961 89.23684943534887 0  224.5717795045128 68.90112930058935 0  207.1505150846513 91.97409496002633 0  206.6973804802006 73.20614062920998 0  209.0198262461606 75.84435446174592 0  204.6828826698789 70.78585325419728 0  244.5505030757118 140.1958289722003 0  241.2713205316759 139.2760911012237 0  242.0887623359319 142.523888210035 0  238.8201809392432 141.5810446831215 0  239.6254755922404 144.8663288044098 0  238.0282380951174 138.3361101328854 0  235.5650201404635 140.6403522599634 0  234.7868703265066 137.3765638391416 0  232.3671992655526 139.7040340002533 0  231.5735594060041 136.4371341666237 0  203.6025996895933 45.13245413868078 0  209.0094500142995 89.77916893533093 0  234.0048963149566 134.0619286436701 0  230.7388584519252 133.0932019642386 0  256.0202376970822 152.4353991158102 0  233.1239077827668 142.9168616681826 0  229.9476468053365 142.0041066209365 0  207.8316386186595 70.1760146256688 0  205.8080150778045 67.77328389450008 0  210.1255397865818 92.58553759086743 0  249.9530000513888 175.7831884132348 0  230.7520925362455 145.2114145624654 0  227.5614746466729 144.2879078440436 0  226.855634298717 141.1029513419209 0  221.109901317114 86.07738557802102 0  221.3898452401857 82.41394785245797 0  233.1906280944642 130.7538222264552 0  229.849944657733 129.8156996791429 0  227.4514186000422 132.1240250470279 0  226.5693510741891 128.7503487535618 0  208.0732626511005 94.86195720558288 0  211.0579654481564 95.54875779444082 0  209.0041892644107 97.86214677695602 0  216.7276956906574 41.503774594868 0  224.4517166451922 143.3327513982825 0  222.7890579510523 161.0597281586643 0  209.0698801997012 67.10609773523754 0  206.9141710660066 64.58868367949086 0  211.5265666272545 70.15591236789595 0  218.2872405225432 83.97244872861398 0  207.7311279855657 86.71297189445447 0  242.9081583239214 145.8040728889821 0  240.4621480942806 148.1601866910276 0  243.7562457682554 149.0907552716282 0  241.3145175595932 151.4726760652338 0  244.57940289053 152.3666461928266 0  242.1615185950008 154.7794567484269 0  238.8718789959482 153.837018554675 0  239.7122407256576 157.1523621063041 0  236.4289375384117 156.2070529629317 0  237.2412111497984 159.5248795948406 0  240.5638486223294 160.4901132255754 0  238.1023772270576 162.8725976094984 0  241.406699334305 163.8359650846702 0  238.9630278156374 166.2175426435888 0  234.7361516891476 161.8928266488476 0  213.124654294145 93.56046727196781 0  212.0434836741439 98.5447165103807 0  209.9504013355788 100.9044854564887 0  213.0958854424699 101.5871381629478 0  210.9302285957408 103.9580876602797 0  214.0010858928389 104.7096094485587 0  211.9141605791952 107.0615795921763 0  214.9890206858068 107.8102538193681 0  212.9269247290344 110.1901972673309 0  216.0786784436673 110.8721476340726 0  209.7617142319936 109.4041944495815 0  213.932211035267 113.2627867337288 0  217.0813395790477 113.941453344218 0  218.441750941724 80.63655841437071 0  242.2412500877879 167.1781012200828 0  229.2280100589433 126.5393356137107 0  225.9203624138538 125.4446005931909 0  223.3571983269889 127.7265579015054 0  222.6136526124249 124.535547281476 0  225.3056527306165 122.1016033222114 0  220.3254947810712 126.7409252226328 0  201.0777098578984 116.3274181811247 0  219.7857338015156 123.3740225787907 0  228.3312248450329 147.5116593523427 0  223.7608055035202 140.2236832285434 0  221.3299816979287 142.3937311365609 0  245.4512147769152 155.7068319139237 0  214.9140854911084 116.3016229600955 0  241.4261562479406 177.9745543740275 0  202.8157779574545 68.56000166221941 0  240.0703975438099 175.788326095019 0  222.1092806876692 145.4935485219417 0  220.9446699547174 129.9892194059113 0  217.7131509102484 129.0121441451285 0  231.966766611991 173.6290727753235 0  244.7035101352062 164.8150950666352 0  215.4589412711449 82.35047797613059 0  218.5358717759109 108.3057574313637 0  210.0910095413371 63.89870618133642 0  207.8879031726656 61.27101234314142 0  219.5945508510063 49.26517889117938 0  204.4640092132492 79.16637174968085 0  219.054165325738 63.24726086273807 0  245.5364828646638 168.1932520030346 0  204.1722248369768 62.21708558088665 0  205.6821920907016 58.50393459316535 0  209.6155639374877 57.86856426712311 0  196.5553895895766 69.81481204083099 0  235.6123608690412 152.8874163252039 0  233.2157615582107 155.2532908181879 0  240.6837858645011 122.4172544901715 0  210.8141135626509 127.8682271622992 0  245.3812170314571 182.2522052029404 0  206.9456715292139 54.99559933887414 0  210.5075513436263 54.0697256538542 0  207.9169085133073 103.1765167571325 0  223.2431750051092 164.070583057325 0  225.7483443677002 162.1151723759482 0  206.0378951001477 96.94148998994152 0  242.6796154699829 175.6597339900036 0  214.6838055972238 146.7252062992904 0  211.9990465678071 115.5576487680909 0  221.4613603554043 78.78973924681317 0  218.3291154698718 77.0769598533563 0  200.3358005877804 107.1120377748188 0  247.4072167499741 149.4171847419639 0  211.6397508657857 39.55684201930068 0  226.8243927196049 72.17619845696734 0  215.354291780634 85.55308818793476 0  236.5600255652378 131.6759521500912 0  226.0129792461303 165.2837912620818 0  218.060680211082 117.0067370946569 0  220.2726382852709 114.6051380114157 0  212.8793579154693 118.3711453694285 0  215.022609143906 99.35520341734289 0  203.0459334752391 85.71272568041367 0  202.8915272398735 55.67723839797077 0  220.5465456567309 139.1747891305704 0  239.6921265383864 169.3260213165692 0  236.6712881821608 168.5826958099534 0  218.0125893802946 141.5012621699478 0  201.3193403438535 110.3399099823547 0  203.3799271438462 107.9393487975089 0  248.1978655115356 165.7601936670729 0  248.8804221900089 169.2105116441819 0  237.1867529048816 147.1869371163321 0  236.7369473929319 176.2832209442509 0  247.3010859001464 162.3677476585113 0  204.3727171343656 110.8209535355564 0  235.7766571132668 128.3537547116865 0  217.8932394506906 150
[...]
<PointData  Vectors="f_12"> 
<DataArray  type="Float64"  Name="f_12"  NumberOfComponents="3" format="ascii">1.0000000000000000e-02 1.0000000000000000e-02 1.0000000000000000e-02  1.0000000000000000e-02 1.0000000000000000e-02 1.0000000000000000e-02  1.0000000000000000e-02 1.0000000000000000e-02 1.0000000000000000e-02  1.0000000000000000e-02 1.0000000000000000e-02 1.0000000000000000e-02  1.0000000000000000e-02 1.0000000000000000e-02 1.0000000000000000e-02  1.0000000000000000e-02 1.0000000000000000e-02 1.0000000000000000e-02  1.0000000000000000e-02 1.0000000000000000e-02 1.0000000000000000e-02  1.0000000000000000e-02 1.0000000000000000e-02 1.0000000000000000e-02  1.0000000000000000e-02 1.0000000000000000e-02 1.0000000000000000e-02  1.0000000000000000e-02 1.0000000000000000e-02 1.0000000000000000e-02  1.0000000000000000e-02 1.0000000000000000e-02 1.0000000000000000e-02  1.0000000000000000e-02 1.0000000000000000e-02 1.0000000000000000e-02  1.0000000000000000e-02 1.0000000000000000e-02 1.0000000000000000e-02  1.3452488357248737e-03 4.2027383661531803e-02 3.1670229889754981e-01  3.0488933823072514e-03 4.6205440962376360e-01 4.2104770108558054e-01  1.2120194029994569e-03 1.6022074076859166e-01 5.9688254002658980e-01  1.3999644021298841e-03 1.3462927323104551e-01 7.0532599119570105e-01  4.7048224265076165e-03 9.6923872946955147e-03 4.0003109223024147e-01  4.4802230376628140e-03 1.0666212330446023e-01 5.7587214539569176e-01  8.6483735246254908e-04 2.0393502535478486e-01 4.9861590591033017e-01  8.1266338983552739e-04 4.5591966970269909e-01 4.3217358343246531e-01  8.1658840973000745e-04 4.3363514990837509e-01 6.9709164836206117e-01  3.3273537158112843e-03 2.1719036466079517e-01 4.1430977366637334e-01  9.9717572557839478e-04 3.9510933349182836e-01 2.6214593236159306e-01  3.3543461585449157e-03 1.1973651102872140e-01 7.2523309022517068e-01  8.9792556004128282e-04 6.5637495750434760e-02 7.3458332007994687e-01  6.3403483053804167e-04 1.3919291461202893e-01 4.9871442626109647e-01  4.4637518977312524e-03 2.8955197688541107e-01 6.6028067561496662e-01  1.2373797562453932e-03 5.0431677529482521e-02 6.1096711272642135e-01  4.2253621114741171e-03 1.8116175208151231e-01 4.5575046459778784e-01  4.5871452301996683e-03 3.8413894660744685e-02 4.7223426193485790e-01  1.7220404046976679e-03 4.7329241393426941e-01 5.6669648494718150e-01  2.6312766413608270e-03 3.8314587796341049e-01 7.4471857190483581e-01  3.2096856214170184e-03 1.2726573844540895e-01 7.0297539835552614e-01  4.6424987853978467e-03 3.2199401030369840e-01 4.1017758911250479e-01  4.8523755413846809e-03 1.2913834813741398e-01 2.9182045351420244e-01  4.1825616033368375e-03 4.5292689955167120e-01 7.4465126860352271e-01  1.1528868197117070e-03 2.5007858346223955e-01 7.3481794688313473e-01  1.4389806714237207e-03 1.4536053526047771e-01 5.8865941344047368e-01  3.8718209800540559e-03 4.6103687254117293e-01 5.1711870664577630e-01  1.0929877106932284e-03 2.3193238064218008e-01 5.5698305836768958e-01  5.8615855720241857e-04 1.3104611364326119e-01 3.4818362168486000e-01  8.5443887793496269e-04 2.6565349354664886e-01 4.7611358767655076e-01  4.1063138918490307e-03 4.4604498423778516e-01 2.8214568341981938e-01  2.0056438277614259e-03 2.5848248784476546e-01 6.2859174535557161e-01  1.5247332322455098e-03 1.4426037407568837e-01 6.1697355896125861e-01  4.8857088164328396e-03 4.1759794283257479e-01 4.0408805022360783e-01  1.8300902969685812e-03 1.7695316879409334e-01 3.3331149015841699e-01  4.2740254714696739e-03 2.2404563255198479e-01 3.6448623134284092e-01  1.5731301920649571e-03 3.5427887267461117e-01 7.1344759822624437e-01  1.7935015084420865e-03 4.6707776602777196e-01 5.7584420453406104e-01  1.2343077645080719e-03 4.0557756649684501e-01 3.2183799057592821e-01  1.0000000000000000e-02 1.0000000000000000e-02 1.0000000000000000e-02  1.0000000000000000e-02 1.0000000000000000e-02 1.0000000000000000e-02  1.0000000000000000e-02 1.0000000000000000e-02 1.0000000000000000e-02  1.0000000000000000e-02 1.0000000000000000e-02 1.0000000000000000e-02  1.0000000000000000e-02 1.0000000000000000e-02 1.0000000000000000e-02  1.0000000000000000e-02 1.0000000000000000e-02 1.0000000000000000e-02  1.0000000000000000e-02 1.0000000000000000e-02 1.0000000000000000e-02  1.0000000000000000e-02 1.0000000000000000e-02 1.0000000000000000e-02  1.0000000000000000e-02 1.0000000000000000e-02 1.0000000000000000e-02  1.0000000000000000e-02 1.0000000000000000e-02 1.0000000000000000e-02  1.0000000000000000e-02 1.0000000000000000e-02 1.0000000000000000e-02  1.0000000000000000e-02 1.0000000000000000e-02 1.0000000000000000e-02  1.0000000000000000e-02 1.0000000000000000e-02 1.0000000000000000e-02  1.0000000000000000e-02 1.0000000000000000e-02 1.0000000000000000e-02  1.0000000000000000e-02 1.0000000000000000e-02 1.0000000000000000e-02  1.0000000000000000e-02 1.0000000000000000e-02 1.0000000000000000e-02  1.0000000000000000e-02 1.0000000000000000e-02 1.0000000000000000e-02  1.0000000000000000e-02 1.0000000000000000e-02 1.0000000000000000e-02  1.0000000000000000e-02 1.0000000000000000e-02 1.0000000000000000e-02  1.0000000000000000e-02 1.0000000000000000e-02 1.0000000000000000e-02  1.0000000000000000e-02 1.0000000000000000e-02 1.0000000000000000e-02  1.0000000000000000e-02 1.0000000000000000e-02 1.0000000000000000e-02  1.0000000000000000e-02 1.0000000000000000e-02 1.0000000000000000e-02  1.0000000000000000e-02 1.0000000000000000e-02 1.0000000000000000e-02  1.0000000000000000e-02 1.0000000000000000e-02 1.0000000000000000e-02  1.0000000000000000e-02 1.0000000000000000e-02 1.0000000000000000e-02  1.0000000000000000e-02 1.0000000000000000e-02 1.0000000000000000e-02  1.0000000000000000e-02 1.0000000000000000e-02 1.0000000000000000e-02  1.0000000000000000e-02 1.0000000000000000e-02 1.0000000000000000e-02  1.0000000000000000e-02 1.0000000000000000e-02 1.0000000000000000e-02  1.0000000000000000e-02 1.0000000000000000e-02 1.0000000000000000e-02  1.0000000000000000e-02 1.0000000000000000e-02 1.0000000000000000e-02  1.0000000000000000e-02 1.0000000000000000e-02 1.0000000000000000e-02  1.0000000000000000e-02 1.0000000000000000e-02 1.0000000000000000e-02  1.0000000000000000e-02 1.0000000000000000e-02 1.0000000000000000e-02  1.0000000000000000e-02 1.0000000000000000e-02 1.0000000000000000e-02  1.0000000000000000e-02 1.0000000000000000e-02 1.0000000000000000e-02  1.0000000000000000e-02 1.0000000000000000e-02 1.0000000000000000e-02  1.0000000000000000e-02 1.0000000000000000e-02 1.0000000000000000e-02  1.0000000000000000e-02 1.0000000000000000e-02 1.0000000000000000e-02  1.0000000000000000e-02 1.0000000000000000e-02 1.0000000000000000e-02  1.0000000000000000e-02 1.0000000000000000e-02 1.0000000000000000e-02  1.0000000000000000e-02 1.0000000000000000e-02 1.0000000000000000e-02  1.0000000000000000e-02 1.0000000000000000e-02 1.0000000000000000e-02  1.0000000000000000e-02 1.0000000000000000e-02 1.0000000000000000e-02  1.0000000000000000e-02 1.0000000000000000e-02 1.0000000000000000e-02  1.0000000000000000e-02 1.0000000000000000e-02 1.0000000000000000e-02  4.0493095077083641e-03 2.3336502171636753e-01 3.6865996209236152e-01  2.4126598647253241e-03 4.0060160883093937e-01 4.5722277064083300e-01  2.9996310397520354e-03 4.8739687175465007e-02 5.4553539792289119e-01  4.1736677834768006e-03 3.3803167599561645e-01 5.4156864622183154e-01  4.7790678130032703e-03 4.5981354950641506e-01 5.1485458829876107e-01  1.9952912211783310e-03 3.2789792692198771e-01 5.8722536991265029e-01  2.8372165277050177e-03 1.8196448905217183e-01 4.6471241722981771e-01  2.4993231674321392e-03 3.1773448618817857e-01 4.3592355009650546e-01  3.3087019022683801e-03 2.7506964917976390e-01 6.2798384259516848e-01  6.1633771863647043e-04 3.5542608594905678e-01 6.0381229033617467e-01  3.7931997671829215e-03 3.9008881986042665e-01 3.8640703226269862e-01  2.7201433341517145e-06 4.8478516212852374e-01 5.9310169794436796e-01  3.5153053944079961e-03 4.5117725137415177e-01 2.5456925710752071e-01  4.3085961761598962e-03 3.1328182408984190e-01 2.6932724692427956e-01  1.0693055724866557e-03 3.9751290722181770e-01 5.0039031772583475e-01  4.2797460490814213e-03 1.1547231782603401e-01 4.5841382230706568e-01  4.5916568665681258e-03 9.0675001766653274e-02 4.3322649563798726e-01  2.8591241017408876e-03 4.9680717612032221e-01 4.6102148927476089e-01  4.0788805481139848e-03 3.6469399325683738e-01 3.2252981442312884e-01  6.8526468332446796e-04 2.7446503752755463e-01 4.5183719729427346e-01  4.1789800556583942e-03 2.1535777410570739e-01 2.8950983560767019e-01  3.5299644654536639e-03 2.3253680620046457e-02 5.7346950931356055e-01  1.0000000000000000e-02 1.0000000000000000e-02 1.0000000000000000e-02  1.0000000000000000e-02 1.0000000000000000e-02 1.0000000000000000e-02  1.0000000000000000e-02 1.0000000000000000e-02 1.0000000000000000e-02  1.0000000000000000e-02 1.0000000000000000e-02 1.0000000000000000e-02  1.0000000000000000e-02 1.0000000000000000e-02 1.0000000000000000e-02  1.0000000000000000e-02 1.0000000000000000e-02 1.0000000000000000e-02  1.0000000000000000e-02 1.0000000000000000e-02 1.0000000000000000e-02  1.0000000000000000e-02 1.0000000000000000e-02 1.0000000000000000e-02  1.0000000000000000e-02 1.0000000000000000e-02 1.0000000000000000e-02  2.8272049041509436e-03 1.9527267996607028e-01 3.1681775938361928e-01  1.0000000000000000e-02 1.0000000000000000e-02 1.0000000000000000e-02  1.0000000000000000e-02 1.0000000000000000e-02 1.0000000000000000e-02  1.0000000000000000e-02 1.0000000000000000e-02 1.0000000000000000e-02  4.5956096315377002e-03 3.1399947681098578e-01 4.5050939253964661e-01  1.0000000000000000e-02 1.0000000000000000e-02 1.0000000000000000e-02  1.0000000000000000e-02 1.0000000000000000e-02 1.0000000000000000e-02  2.0769995601650866e-03 1.8553109252229605e-01 6.5177831293994359e-01  2.9497999752987952e-03 3.5907150864277426e-01 5.7808923179660754e-01  2.6570221067793972e-03 1.4506539627209603e-02 2.5947850729360117e-01  2.7427306235585942e-03 3.8485523384069564e-01 3.1557884466025149e-01  4.3752916279943509e-03 4.1715670825986523e-01 3.2319056212408215e-01  2.3674101324852375e-03 2.3954492498055530e-01 3.1520788916401460e-01  2.0279425191238867e-03 6.7890765565377431e-02 3.5337928968375559e-01  2.5788467999247612e-04 2.1738375231317791e-01 5.5381431445700924e-01  7.0189640143123236e-04 7.7442214169266332e-02 4.4206514916391915e-01  9.9592051693240093e-04 3.9768111177981907e-01 6.4581653166842534e-01  4.1255877791583750e-03 4.8460941010810954e-01 4.0523313286423746e-01  2.6644986831667532e-03 2.6799567852064982e-01 7.0706436374761217e-01  4.4505046577153944e-03 3.5272388692965689e-01 3.6439224517238089e-01  5.2154852553013887e-04 3.8532545913896965e-01 4.1537356935841058e-01  1.0000000000000000e-02 1.0000000000000000e-02 1.0000000000000000e-02  1.0000000000000000e-02 1.0000000000000000e-02 1.0000000000000000e-02  1.0000000000000000e-02 1.0000000000000000e-02 1.0000000000000000e-02  1.0000000000000000e-02 1.0000000000000000e-02 1.0000000000000000e-02  1.0000000000000000e-02 1.0000000000000000e-02 1.0000000000000000e-02  1.0000000000000000e-02 1.0000000000000000e-02 1.0000000000000000e-02  1.0000000000000000e-02 1.0000000000000000e-02 1.0000000000000000e-02  1.0000000000000000e-02 1.0000000000000000e-02 1.0000000000000000e-02  1.0000000000000000e-02 1.0000000000000000e-02 1.0000000000000000e-02  1.0000000000000000e-02 1.0000000000000000e-02 1.0000000000000000e-02  4.6079749928472304e-04 1.7735240650551759e-01 2.5246255048428140e-01  2.7852200390068825e-03 8.0494469607591712e-02 5.0583907964601416e-01  1.0000000000000000e-02 1.0000000000000000e-02 1.0000000000000000e-02  1.0000000000000000e-02 1.0000000000000000e-02 1.0000000000000000e-02  1.0000000000000000e-02 1.0000000000000000e-02 1.0000000000000000e-02  1.0000000000000000e-02 1.0000000000000000e-02 1.0000000000000000e-02  1.0000000000000000e-02 1.0000000000000000e-02 1.0000000000000000e-02  2.7589128608701457e-03 1.2882463675058714e-01 3.7708078098049108e-01  5.6301824863473128e-04 4.2646537462264045e-02 4.9067311717810119e-01  4.5395070722131989e-03 3.7770374660701356e-01 4.4110989566790432e-01  1.0000000000000000e-02 1.0000000000000000e-02 1.0000000000000000e-02  1.0000000000000000e-02 1.0000000000000000e-02 1.0000000000000000e-02  1.0000000000000000e-02 1.0000000000000000e-02 1.0000000000000000e-02  1.0000000000000000e-02 1.0000000000000000e-02 1.0000000000000000e-02  3.1699230613912717e-03 1.0232847800173028e-01 2.7268640240589137e-01  2.5512119429417783e-03 4.0801725653935350e-01 7.3477301753584889e-01  1.0000000000000000e-02 1.0000000000000000e-02 1.0000000000000000e-02  1.0000000000000000e-02 1.0000000000000000e-02 1.0000000000000000e-02  1.0000000000000000e-02 1.0000000000000000e-02 1.0000000000000000e-02  1.0000000000000000e-02 1.0000000000000000e-02 1.0000000000000000e-02  8.1226876424124851e-04 1.7979369588641975e-01 5.3766382242203892e-01  1.8326457293665599e-03 3.1587682313653009e-01 4.0989457476825586e-01  7.5052101648689755e-04 2.8680540448656505e-01 3.4571823715050770e-01  4.7010167736670164e-03 2.8773984586952461e-02 6.9652437966575764e-01  1.0000000000000000e-02 1.0000000000000000e-02 1.0000000000000000e-02  1.0000000000000000e-02 1.0000000000000000e-02 1.0000000000000000e-02  1.9467073328252110e-03 4.7348160955355323e-02 6.7727311303144289e-01  9.9417906717008285e-04 4.4009215292459708e-01 6.6472583897605508e-01  2.9374397580686031e-03 4.2903460115628289e-01 7.0830627239429300e-01  2.6379234927454195e-03 1.1689359616476908e-01 7.4384426815962479e-01  4.0595860413470573e-03 2.9406817155067816e-01 6.0747771664789640e-01  1.0000000000000000e-02 1.0000000000000000e-02 1.0000000000000000e-02  1.0000000000000000e-02 1.0000000000000000e-02 1.0000000000000000e-02  1.0000000000000000e-02 1.0000000000000000e-02 1.0000000000000000e-02  1.0000000000000000e-02 1.0000000000000000e-02 1.0000000000000000e-02  1.0000000000000000e-02 1.0000000000000000e-02 1.0000000000000000e-02  1.0000000000000000e-02 1.0000000000000000e-02 1.0000000000000000e-02  1.0000000000000000e-02 1.0000000000000000e-02 1.0000000000000000e-02  1.0000000000000000e-02 1.0000000000000000e-02 1.0000000000000000e-02  1.0000000000000000e-02 1.0000000000000000e-02 1.0000000000000000e-02  1.0000000000000000e-02 1.0000000000000000e-02 1.0000000000000000e-02  1.0000000000000000e-02 1.0000000000000000e-02 1.0000000000000000e-02  1.0000000000000000e-02 1.0000000000000000e-02 1.0000000000000000e-02  1.0000000000000000e-02 1.0000000000000000e-02 1.0000000000000000e-02  1.0000000000000000e-02 1.0000000000000000e-02 1.0000000000000000e-02  1.0000000000000000e-02 1.0000000000000000e-02 1.0000000000000000e-02  4.3248196416803362e-03 3.8906841564678329e-02 6.2624658128278221e-01  1.9757826690395266e-03 2.3602339106143277e-01 2.7711157132036535e-01  3.5891381426052826e-03 5.0415407047686267e-02 4.1774782204818239e-01  5.5235962307061018e-04 2.9636128579682858e-01 2.7115209774931232e-01  3.3688789084550235e-03 2.8669262832069720e-02 4.4743897037981728e-01  5.8178511333169204e-04 3.9243412072132000e-02 4.1845768031209979e-01  4.1401467761205592e-03 3.3657060826077562e-01 5.2685991789403086e-01  1.2202566124330805e-03 4.2142042096596821e-01 7.4490487107356440e-01  1.0000000000000000e-02 1.0000000000000000e-02 1.0000000000000000e-02  1.0000000000000000e-02 1.0000000000000000e-02 1.0000000000000000e-02  1.0000000000000000e-02 1.0000000000000000e-02 1.0000000000000000e-02  1.0000000000000000e-02 1.0000000000000000e-02 1.0000000000000000e-02  1.0000000000000000e-02 1.0000000000000000e-02 1.0000000000000000e-02  9.6242828268673425e-04 2.2939604254025225e-01 6.4876161823785217e-01  1.0000000000000000e-02 1.0000000000000000e-02 1.0000000000000000e-02  1.0000000000000000e-02 1.0000000000000000e-02 1.0000000000000000e-02  1.0000000000000000e-02 1.0000000000000000e-02 1.0000000000000000e-02  1.0000000000000000e-02 1.0000000000000000e-02 1.0000000000000000e-02  1.0000000000000000e-02 1.0000000000000000e-02 1.0000000000000000e-02  1.0000000000000000e-02 1.0000000000000000e-02 1.0000000000000000e-02  1.0000000000000000e-02 1.0000000000000000e-02 1.0000000000000000e-02  1.0000000000000000e-02 1.0000000000000000e-02 1.0000000000000000e-02  1.0000000000000000e-02 1.0000000000000000e-02 1.0000000000000000e-02  1.0000000000000000e-02 1.0000000000000000e-02 1.0000000000000000e-02  1.0000000000000000e-02 1.0000000000000000e-02 1.0000000000000000e-02  1.0000000000000000e-02 1.0000000000000000e-02 1.0000000000000000e-02  1.0000000000000000e-02 1.0000000000000000e-02 1.0000000000000000e-02  1.0000000000000000e-02 1.0000000000000000e-02 1.0000000000000000e-02  1.0000000000000000e-02 1.0000000000000000e-02 1.0000000000000000e-02  1.0808301008890192e-03 1.3865873997725620e-01 6.7333304905527580e-01  1.0000000000000000e-02 1.0000000000000000e-02 1.0000000000000000e-02  1.0000000000000000e-02 1.0000000000000000e-02 1.0000000000000000e-02  1.0000000000000000e-02 1.0000000000000000e-02 1.0000000000000000e-02  1.0000000000000000e-02 1.0000000000000000e-02 1.0000000000000000e-02  1.0000000000000000e-02 1.0000000000000000e-02 1.0000000000000000e-02  1.0000000000000000e-02 1.0000000000000000e-02 1.0000000000000000e-02  3.8276860049731212e-03 1.8909208076620404e-01 2.6141373715966681e-01  1.8662001424171199e-03 2.6549760531282418e-01 6.1037210737706193e-01  1.3290883682810400e-03 4.0483433001497399e-01 3.7127076747799764e-01  3.9363983182393800e-03 5.3409504625740456e-03 5.3047357719822774e-01  2.3271816011929463e-03 3.4190559416295746e-01 4.4407450824364741e-01  4.4595916836370207e-05 9.4135576607515925e-02 3.0897550283993525e-01  1.8451271288111777e-03 3.5608360325023902e-01 3.8029153022661083e-01  1.0000000000000000e-02 1.0000000000000000e-02 1.0000000000000000e-02  2.9639668042365230e-03 2.7994466674852470e-01 7.4224690481032707e-01  2.9644633200585396e-03 2.2832006612238076e-01 3.8029979933458663e-01  1.9432902917268846e-04 2.9361648958350722e-01 4.5557691660991118e-01  2.2249545722305281e-03 2.3526248869631006e-02 4.0669754646978917e-01  1.0000000000000000e-02 1.0000000000000000e-02 1.0000000000000000e-02  1.0000000000000000e-02 1.0000000000000000e-02 1.0000000000000000e-02  1.0000000000000000e-02 1.0000000000000000e-02 1.0000000000000000e-02  1.0000000000000000e-02 1.0000000000000000e-02 1.0000000000000000e-02  1.0000000000000000e-02 1.0000000000000000e-02 1.0000000000000000e-02  4.0173967076006702e-03 1.1559481682703837e-01 6.7409029156822664e-01  3.9955373218642449e-03 3.2924343903587311e-01 6.2027520328371133e-01  4.3514279180550857e-03 2.1472832081069304e-01 5.5527292062731037e-01  1.0000000000000000e-02 1.0000000000000000e-02 1.0000000000000000e-02  1.0000000000000000e-02 1.0000000000000000e-02 1.0000000000000000e-02  3.3802687905073649e-03 4.2279596187413554e-01 5.0827260171195032e-01  1.0000000000000000e-02 1.0000000000000000e-02 1.0000000000000000e-02  1.0000000000000000e-02 1.0000000000000000e-02 1.0000000000000000e-02  1.0000000000000000e-02 1.0000000000000000e-02 1.0000000000000000e-02  4.3945297436180529e-03 1.4015142331797203e-01 5.5697629930870329e-01  1.6316899326240010e-03 2.0714525517128862e-01 4.0593654103933680e-01  3.6306470902922605e-03 3.4389733695562835e-01 3.6645943026792743e-01  1.0000000000000000e-02 1.0000000000000000e-02 1.0000000000000000e-02  2.3760235788395190e-03 2.5507099930186011e-01 5.1528281716153401e-01  2.7133538145642677e-04 4.2762871074175995e-01 6.2365491616662416e-01  1.4507201724391933e-03 2.1560410478990738e-01 2.6395646754520585e-01  1.0000000000000000e-02 1.0000000000000000e-02 1.0000000000000000e-02  1.0000000000000000e-02 1.0000000000000000e-02 1.0000000000000000e-02  1.0000000000000000e-02 1.0000000000000000e-02 1.0000000000000000e-02  1.0000000000000000e-02 1.0000000000000000e-02 1.0000000000000000e-02  1.0000000000000000e-02 1.0000000000000000e-02 1.0000000000000000e-02  4.9778474242430240e-03 2.9935280297746558e-01 5.4028168994046721e-01  1.0652298946240897e-03 2.7872121495076202e-01 3.7534310933077081e-01  9.2094474507549320e-04 3.6713985755243300e-01 4.5585821547519423e-01  1.0000000000