<?xml version="1.0"?>
<VTKFile type="UnstructuredGrid"  version="0.1"  >
<UnstructuredGrid>
<Piece  NumberOfPoints="600" NumberOfCells="1069">
<Points>
<DataArray  type="Float64"  NumberOfComponents="3"  format="ascii">239.8 188 0  250.2 180 0  258.2 172.4 0  257 169.4 0  259.9 157.4 0  258.7 150.3 0  261 143.5 0  251.7 144.4 0  250 138.7 0  247 138.1 0  245.2 130.8 0  247.3 126.4 0  242.7 118.6 0  231.2 107.7 0  226 102.4 0  226.5 93.90000000000001 0  224.5 91.19999999999999 0  224.5 84.09999999999999 0  234.5 73.80000000000001 0  228.4 68.90000000000001 0  230 70 0  233.4 68 0  222.7 61.5 0  220.6 45.5 0  223.4 49.40000000000001 0  224 47 0  221.8 43.09999999999999 0  221 38.40000000000001 0  219.5 38.5 0  219.4 41.69999999999999 0  217.1 36.90000000000001 0  209.7 36 0  209.5 31.69999999999999 0  205.1 29.90000000000001 0  201.5 30.40000000000001 0  199.2 38.69999999999999 0  201.8 41.40000000000001 0  194.8 53.80000000000001 0  196.1 57.69999999999999 0  193 59 0  191.4 66.09999999999999 0  193.5 66.5 0  194.1 64.40000000000001 0  195.6 64.69999999999999 0  195.4 72.40000000000001 0  199.5 77.30000000000001 0  197.7 86.90000000000001 0  200.6 87.5 0  201.5 91 0  198 94.80000000000001 0  198.6 100 0  197.3 105.4 0  198 109.5 0  197 112.7 0  198.3 116.1 0  201.3 122 0  207.2 121 0  208.1 126.7 0  205.6 127.9 0  209.1 134.9 0  210.9 144.4 0  210.1 147.9 0  213 148.4 0  215.4 149.3 0  215.1 152.8 0  219.9 159.7 0  220.3 163.2 0  218.7 164.9 0  219.9 166.7 0  221.9 169.7 0  220 170.3 0  224.9 174.7 0  229.8 177.4 0  229.7 181 0  228 172.9 0  239 178 0  240.4 180 0  239 181.5 0  241.2 185.9 0  242.95 187.99 0  241.113414658978 187.995830429654 0  242.142964269982 187.9925620181905 0  243.6619187087475 187.2054164851183 0  244.631513060971 186.1368566403919 0  245.9520480703466 184.6815359886801 0  247.7505449816197 182.6994683581873 0  252.8666666668011 177.466666666539 0  255.5333333336077 174.9333333330727 0  257.9666666666661 165.4000000000025 0  258.9333333333339 161.3999999999974 0  259.3000000000018 153.8500000000108 0  259.849999999995 146.9000000000149 0  256.350000000011 143.9499999999989 0  250.8500000000015 141.5500000000051 0  246.1000000000042 134.450000000017 0  245.0000000000049 122.5000000000082 0  239.8250000000041 115.875000000004 0  236.9500000000083 113.1500000000079 0  234.0750000000041 110.4250000000039 0  228.6000000000041 105.0500000000042 0  226.25 98.15000000000002 0  224.5 87.65000000001388 0  227.8333333333301 80.66666666667 0  231.1666666666644 77.23333333333571 0  232.2500000000014 71.90000000000116 0  230.8999999999995 68.45000000000009 0  225.5500000000108 65.20000000001409 0  222.9333333333329 57.46666666667507 0  223.1666666666663 53.43333333333877 0  218.2500000000016 39.30000000000339 0  213.4000000000277 36.45000000000337 0  200.3500000000025 34.54999999999097 0  199.4666666666726 45.53333333332282 0  197.1333333333385 49.66666666665756 0  193.5499999999978 61.6999999999891 0  193.3999999999962 69.24999999999406 0  197.4499999999954 74.84999999999454 0  198.6000000000007 82.09999999999631 0  199.7500000000014 92.8999999999985 0  198.2999999999997 97.39999999999726 0  197.950000000001 102.699999999996 0  199.7999999999944 119.049999999989 0  204.2499999999946 121.5000000000009 0  207.6499999999987 123.8499999999919 0  207.35 131.4 0  209.9999999999998 139.649999999999 0  217.4999999999938 156.249999999991 0  223.4 172.2 0  234.349999999995 179.5000000000016 0  243.6879031604435 137.0140197666175 0  200.5383884465266 74.3488835611292 0  236.0631303447202 117.0934887033495 0  255.2860706566257 162.4962097513293 0  210.288597171716 124.9641969758756 0  200.5494091764226 101.6938959209836 0  221.0463142825589 155.4583368622661 0  213.2458552033902 137.0182369603261 0  202.5715495252679 76.72215432732189 0  203.3954031521662 88.63888283314805 0  204.2685850489914 91.3771816532193 0  227.6002395557545 108.6285485308707 0  203.628067965887 73.80056467640915 0  205.5882193517793 76.19298591547215 0  219.3893731065793 59.36381842571261 0  222.6962970705901 100.2685345181304 0  206.2147206748961 89.23684943534887 0  224.5717795045128 68.90112930058935 0  207.1505150846513 91.97409496002633 0  206.6973804802006 73.20614062920998 0  209.0198262461606 75.84435446174592 0  204.6828826698789 70.78585325419728 0  244.5505030757118 140.1958289722003 0  241.2713205316759 139.2760911012237 0  242.0887623359319 142.523888210035 0  238.8201809392432 141.5810446831215 0  239.6254755922404 144.8663288044098 0  238.0282380951174 138.3361101328854 0  235.5650201404635 140.6403522599634 0  234.7868703265066 137.3765638391416 0  232.3671992655526 139.7040340002533 0  231.5735594060041 136.4371341666237 0  203.6025996895933 45.13245413868078 0  209.0094500142995 89.77916893533093 0  234.0048963149566 134.0619286436701 0  230.7388584519252 133.0932019642386 0  256.0202376970822 152.4353991158102 0  233.1239077827668 142.9168616681826 0  229.9476468053365 142.0041066209365 0  207.8316386186595 70.1760146256688 0  205.8080150778045 67.77328389450008 0  210.1255397865818 92.58553759086743 0  249.9530000513888 175.7831884132348 0  230.7520925362455 145.2114145624654 0  227.5614746466729 144.2879078440436 0  226.855634298717 141.1029513419209 0  221.109901317114 86.07738557802102 0  221.3898452401857 82.41394785245797 0  233.1906280944642 130.7538222264552 0  229.849944657733 129.8156996791429 0  227.4514186000422 132.1240250470279 0  226.5693510741891 128.7503487535618 0  208.0732626511005 94.86195720558288 0  211.0579654481564 95.54875779444082 0  209.0041892644107 97.86214677695602 0  216.7276956906574 41.503774594868 0  224.4517166451922 143.3327513982825 0  222.7890579510523 161.0597281586643 0  209.0698801997012 67.10609773523754 0  206.9141710660066 64.58868367949086 0  211.5265666272545 70.15591236789595 0  218.2872405225432 83.97244872861398 0  207.7311279855657 86.71297189445447 0  242.9081583239214 145.8040728889821 0  240.4621480942806 148.1601866910276 0  243.7562457682554 149.0907552716282 0  241.3145175595932 151.4726760652338 0  244.57940289053 152.3666461928266 0  242.1615185950008 154.7794567484269 0  238.8718789959482 153.837018554675 0  239.7122407256576 157.1523621063041 0  236.4289375384117 156.2070529629317 0  237.2412111497984 159.5248795948406 0  240.5638486223294 160.4901132255754 0  238.1023772270576 162.8725976094984 0  241.406699334305 163.8359650846702 0  238.9630278156374 166.2175426435888 0  234.7361516891476 161.8928266488476 0  213.124654294145 93.56046727196781 0  212.0434836741439 98.5447165103807 0  209.9504013355788 100.9044854564887 0  213.0958854424699 101.5871381629478 0  210.9302285957408 103.9580876602797 0  214.0010858928389 104.7096094485587 0  211.9141605791952 107.0615795921763 0  214.9890206858068 107.8102538193681 0  212.9269247290344 110.1901972673309 0  216.0786784436673 110.8721476340726 0  209.7617142319936 109.4041944495815 0  213.932211035267 113.2627867337288 0  217.0813395790477 113.941453344218 0  218.441750941724 80.63655841437071 0  242.2412500877879 167.1781012200828 0  229.2280100589433 126.5393356137107 0  225.9203624138538 125.4446005931909 0  223.3571983269889 127.7265579015054 0  222.6136526124249 124.535547281476 0  225.3056527306165 122.1016033222114 0  220.3254947810712 126.7409252226328 0  201.0777098578984 116.3274181811247 0  219.7857338015156 123.3740225787907 0  228.3312248450329 147.5116593523427 0  223.7608055035202 140.2236832285434 0  221.3299816979287 142.3937311365609 0  245.4512147769152 155.7068319139237 0  214.9140854911084 116.3016229600955 0  241.4261562479406 177.9745543740275 0  202.8157779574545 68.56000166221941 0  240.0703975438099 175.788326095019 0  222.1092806876692 145.4935485219417 0  220.9446699547174 129.9892194059113 0  217.7131509102484 129.0121441451285 0  231.966766611991 173.6290727753235 0  244.7035101352062 164.8150950666352 0  215.4589412711449 82.35047797613059 0  218.5358717759109 108.3057574313637 0  210.0910095413371 63.89870618133642 0  207.8879031726656 61.27101234314142 0  219.5945508510063 49.26517889117938 0  204.4640092132492 79.16637174968085 0  219.054165325738 63.24726086273807 0  245.5364828646638 168.1932520030346 0  204.1722248369768 62.21708558088665 0  205.6821920907016 58.50393459316535 0  209.6155639374877 57.86856426712311 0  196.5553895895766 69.81481204083099 0  235.6123608690412 152.8874163252039 0  233.2157615582107 155.2532908181879 0  240.6837858645011 122.4172544901715 0  210.8141135626509 127.8682271622992 0  245.3812170314571 182.2522052029404 0  206.9456715292139 54.99559933887414 0  210.5075513436263 54.0697256538542 0  207.9169085133073 103.1765167571325 0  223.2431750051092 164.070583057325 0  225.7483443677002 162.1151723759482 0  206.0378951001477 96.94148998994152 0  242.6796154699829 175.6597339900036 0  214.6838055972238 146.7252062992904 0  211.9990465678071 115.5576487680909 0  221.4613603554043 78.78973924681317 0  218.3291154698718 77.0769598533563 0  200.3358005877804 107.1120377748188 0  247.4072167499741 149.4171847419639 0  211.6397508657857 39.55684201930068 0  226.8243927196049 72.17619845696734 0  215.354291780634 85.55308818793476 0  236.5600255652378 131.6759521500912 0  226.0129792461303 165.2837912620818 0  218.060680211082 117.0067370946569 0  220.2726382852709 114.6051380114157 0  212.8793579154693 118.3711453694285 0  215.022609143906 99.35520341734289 0  203.0459334752391 85.71272568041367 0  202.8915272398735 55.67723839797077 0  220.5465456567309 139.1747891305704 0  239.6921265383864 169.3260213165692 0  236.6712881821608 168.5826958099534 0  218.0125893802946 141.5012621699478 0  201.3193403438535 110.3399099823547 0  203.3799271438462 107.9393487975089 0  248.1978655115356 165.7601936670729 0  248.8804221900089 169.2105116441819 0  237.1867529048816 147.1869371163321 0  236.7369473929319 176.2832209442509 0  247.3010859001464 162.3677476585113 0  204.3727171343656 110.8209535355564 0  235.7766571132668 128.3537547116865 0  217.8932394506906 150
[...]
<PointData  Vectors="f_12"> 
<DataArray  type="Float64"  Name="f_12"  NumberOfComponents="3" format="ascii">7.9862762063680948e-01 5.9064451376725224e-01 6.4241346019858481e-01  7.9469033516961596e-01 5.5894075838192803e-01 6.8148276952477460e-01  7.9526294834291478e-01 5.5779366015917420e-01 6.8342689838510329e-01  7.9209461806821335e-01 5.3924070261096246e-01 7.0450385958063499e-01  7.7656584642154203e-01 4.5809578595879530e-01 7.8670479826832762e-01  7.5574026729313237e-01 3.8321875206598832e-01 8.4031059045879708e-01  7.6013235582258354e-01 3.9389383961054936e-01 8.3562318914984346e-01  6.7334969607772976e-01 1.9872526211795291e-01 8.2290330786192667e-01  6.0667013791403290e-01 1.1390644940432937e-01 6.5331252827635267e-01  5.8363609413587747e-01 9.9302249449599186e-02 5.6782389714031811e-01  5.6721750292098116e-01 9.5813780035529816e-02 5.0536154010640555e-01  5.9257826136208980e-01 1.1403053241543464e-01 6.0531533797537884e-01  6.6940355600205137e-01 2.4158693149324831e-01 7.9402574945808102e-01  7.3429778988519534e-01 7.4352635187716987e-01 3.3475399367343417e-01  7.4551773779109731e-01 5.1804118605962302e-01 6.7161116727657355e-01  7.2984135551948459e-01 3.2982188654713090e-01 8.5218988677904772e-01  7.1215995340380711e-01 2.7589765347616152e-01 8.6352937272598496e-01  6.0076681378505659e-01 1.1825163145152520e-01 6.2485687727604178e-01  5.1472158877483709e-01 9.3512828498696729e-02 2.7283071312770302e-01  5.1443187426134440e-01 1.7783488634419448e-01 2.1782911333206009e-01  5.1023066859682420e-01 1.4258857348054879e-01 2.2308514319541106e-01  5.0105216481923742e-01 1.3393850817212363e-01 1.9072813559780752e-01  6.2373317369608527e-01 5.7652317378603790e-01 2.7971489900897933e-01  6.5758112608440977e-01 7.5027474712750220e-01 1.6019573500446888e-01  6.7515602278935949e-01 7.5889924233786932e-01 1.9140770652180866e-01  6.5372554511291303e-01 7.4842449938518063e-01 1.5323891505962067e-01  6.5140244817942183e-01 7.4552480046540315e-01 1.5090687466961922e-01  6.4213302289851903e-01 7.3671669396410033e-01 1.3814600656500189e-01  6.4273702622992768e-01 7.3723232208197587e-01 1.3904061014550792e-01  6.4806729012450448e-01 7.4203548783198803e-01 1.4677735019579344e-01  6.4225683304193326e-01 7.3406409796759409e-01 1.4163854767384096e-01  6.2914195080128543e-01 7.0957793837176808e-01 1.3559085377231278e-01  6.1122463513725445e-01 6.8024149593653416e-01 1.1805696755682792e-01  6.0575448672514220e-01 6.7022467296568555e-01 1.1277619983227152e-01  6.0565419363915951e-01 6.6999184169888415e-01 1.1277704916804886e-01  6.3280145849446812e-01 7.1051258847490595e-01 1.4483370262010606e-01  6.5178150058776751e-01 7.2938133245110415e-01 1.7233993218691812e-01  6.1213556913323608e-01 5.8522755412735583e-01 2.3103608829271449e-01  5.6418075601482087e-01 4.5246927765825939e-01 1.9215631514719961e-01  5.2938642730918106e-01 3.4217214306432875e-01 1.5420015463780742e-01  4.9876338332713888e-01 1.1792362148495786e-01 1.8968633290744477e-01  5.0020569850558572e-01 1.2363377101023978e-01 1.9213835412660571e-01  5.1266123671473696e-01 2.4403661892210610e-01 1.6217908677789608e-01  5.0987740322209540e-01 2.1225278243103290e-01 1.7309039124442183e-01  5.0693536354028212e-01 9.8224613717894718e-02 2.3499611107490209e-01  5.4870139803483531e-01 9.2600530305011322e-02 4.1736617736491927e-01  6.4986157835471037e-01 1.5145393145685040e-01 7.8458803214248318e-01  6.5168409550599193e-01 1.5630205896734148e-01 7.8572071467492566e-01  6.7101149756128109e-01 1.8735093110737752e-01 8.2472459317254665e-01  6.8055099597033142e-01 2.0935780325908351e-01 8.3782907729419998e-01  6.9356260808819836e-01 2.4994473770709133e-01 8.4341737662813787e-01  7.1995067128543466e-01 3.5514574530963289e-01 8.1183825857602876e-01  7.3902202132364836e-01 4.9821592870218351e-01 6.8687731933177099e-01  7.4258689506923936e-01 6.0969877888763802e-01 5.4479769791859656e-01  7.3503087032112369e-01 6.9149921061191988e-01 4.1347097524273890e-01  7.1329726124652271e-01 7.6880259782698657e-01 2.5904083407864792e-01  7.2402793512021268e-01 7.1626152230823925e-01 3.5792474455265250e-01  6.8263848754080825e-01 3.7373898206738132e-01 7.0246948861009895e-01  6.6822242092670692e-01 3.0816228943641505e-01 7.3409124898387224e-01  5.6179871977100204e-01 2.1519141300946584e-01 3.9914443914528847e-01  4.9749951887268051e-01 2.2049047633602151e-01 1.2042679751314223e-01  4.9289414094699718e-01 2.0937099509693341e-01 1.1042824014215911e-01  4.9214067651653115e-01 1.9898218904439330e-01 1.1405620464971006e-01  4.8928667340692850e-01 1.6804771997780005e-01 1.2215684987441007e-01  4.8811317574786806e-01 1.3756265039566257e-01 1.3546343752521564e-01  5.1007279094012714e-01 9.7623290588988873e-02 2.4674956926688849e-01  5.3689495863605807e-01 8.8143081724855535e-02 3.6929158915654603e-01  5.4736616268574390e-01 8.6622723329320570e-02 4.1732494158522548e-01  5.5764603171422389e-01 8.8567361472994835e-02 4.6151206420197727e-01  5.7928856553003838e-01 9.6880952985025526e-02 5.5008850421732403e-01  5.7527207844780526e-01 9.3173713148967732e-02 5.3639004716733496e-01  6.2092700525966960e-01 1.2488142220071390e-01 7.0186903189398342e-01  7.2328393210098041e-01 2.9007681791022677e-01 8.7370602744147918e-01  7.3480493074628539e-01 3.1756266412048084e-01 8.6923716553450925e-01  6.4752384439015442e-01 1.5878498672980176e-01 7.7127856771489889e-01  7.6122599320710194e-01 4.1111827069737944e-01 8.1827799950699842e-01  7.8414315867961737e-01 5.0921039527377954e-01 7.3344656314310908e-01  7.9032863417965571e-01 5.3972103486677381e-01 7.0222017989585062e-01  7.9752901499229545e-01 5.8279427114401927e-01 6.5223205016619623e-01  7.9812130117916702e-01 5.8696704561027147e-01 6.4698808776704830e-01  7.9831072962793170e-01 5.8836371147840760e-01 6.4526111334733693e-01  7.9819460405844900e-01 5.8750810226017203e-01 6.4632273905245474e-01  7.9787618921284642e-01 5.8519891955857861e-01 6.4916663780018358e-01  7.9723867539244386e-01 5.8057833848340523e-01 6.5484697597791608e-01  7.9637934036885794e-01 5.7397583549253428e-01 6.6297122283058230e-01  7.9515550612213037e-01 5.6453697519224200e-01 6.7442802911774347e-01  7.9458855135977380e-01 5.5671578093850638e-01 6.8422120024596289e-01  7.9517460574071441e-01 5.5852682602345016e-01 6.8237828177967186e-01  7.8668140862231695e-01 5.0808371902089566e-01 7.3832685236327122e-01  7.8164556002056695e-01 4.8180166522526779e-01 7.6469282516625703e-01  7.6684995863062932e-01 4.2128211058402620e-01 8.1568374428342860e-01  7.5651955589802056e-01 3.8364352509288707e-01 8.4081836868211157e-01  7.4404795915558175e-01 3.4744781348499548e-01 8.5953390892456916e-01  6.2665978965198288e-01 1.3408904240749864e-01 7.1530004776830047e-01  5.6282569705487273e-01 8.9597018876805906e-02 4.8716414777022388e-01  6.2054223531041597e-01 1.4811923764548462e-01 6.9693335988508387e-01  7.1184135184288178e-01 3.8997461711702103e-01 7.6069649157895691e-01  7.3742960704121086e-01 5.8152714641914127e-01 5.7660345856610906e-01  7.3723623426113349e-01 7.1438706031658794e-01 3.8396142920646809e-01  7.4172100636885518e-01 6.7160793257266094e-01 4.5430178467202392e-01  7.3870627398354782e-01 3.8609099395922786e-01 8.1388861495060516e-01  6.6716197145823863e-01 1.8843937173255776e-01 8.1403182876036784e-01  5.4232980926809737e-01 8.6537581027168603e-02 3.9813921533214774e-01  5.2010006237301354e-01 8.8176719536476503e-02 2.9928436691935345e-01  5.1297987614983631e-01 1.0325249163153646e-01 2.5933029356878090e-01  5.0666150024774337e-01 1.3936750279444160e-01 2.1040719916038886e-01  5.5457531189607345e-01 3.6420512032301894e-01 2.3863326925153916e-01  6.6853464014580999e-01 6.9636778821111467e-01 2.6227976343828985e-01  6.7954510285944869e-01 7.4593698052392621e-01 2.2026188023679166e-01  6.4474925758434687e-01 7.3750761187613667e-01 1.4387477361251058e-01  6.3984996036889186e-01 7.2862604266441966e-01 1.4198071691718320e-01  6.1668363859376307e-01 6.8810783647813445e-01 1.2511630218023845e-01  6.6889421108709812e-01 7.2581927792671674e-01 2.2252317323109538e-01  6.4985827302463905e-01 6.7309030790506386e-01 2.4276603460480059e-01  5.2216258226164902e-01 3.0455318938841625e-01 1.5468583857176879e-01  5.0053568535270232e-01 1.1323055154848756e-01 1.9960648160509786e-01  5.1948679905748429e-01 9.1417284554539291e-02 2.9212057326139496e-01  6.1691585310921515e-01 1.2022617327002343e-01 6.8661346137902124e-01  6.7768629734395414e-01 2.0167052865365503e-01 8.3466684109386868e-01  6.8462086786576237e-01 2.2143909781465224e-01 8.4088446035142128e-01  7.0685868757471892e-01 2.9816432998420744e-01 8.3577491222058031e-01  7.2137949090886089e-01 7.4759833297343414e-01 3.0543029174554776e-01  7.1599149892622971e-01 7.6207763432801867e-01 2.7414866470974791e-01  7.1915223296978259e-01 5.7020240835636826e-01 5.5554042455990027e-01  6.2543352409764374e-01 2.4791374070709776e-01 6.3594194639921908e-01  5.1825664670899030e-01 2.3458072438043778e-01 1.9420341900531143e-01  4.9331129461563178e-01 1.1676397152422616e-01 1.6732551778609453e-01  6.0868908539046906e-01 1.1611059491366317e-01 6.5863532948560555e-01  7.3959479964206842e-01 3.3203134330495043e-01 8.6492502786835490e-01  5.6100458813050780e-01 8.9718100111749605e-02 4.7736284885957514e-01  5.2377819010290261e-01 9.6949454231893897e-02 3.0703725658774300e-01  7.2004965683204514e-01 4.5129194959926933e-01 7.0975674617284801e-01  7.7806468668938289e-01 4.7018929632380990e-01 7.7448901038415152e-01  7.0607897629806426e-01 4.8022766385603260e-01 6.4088046927645004e-01  7.0051836076282392e-01 2.7415600989736078e-01 8.4134201433537048e-01  4.9652869351446766e-01 1.1007629367785050e-01 1.8402554539448573e-01  5.2914111292738131e-01 2.2403490508858195e-01 2.4910256697603828e-01  5.4231814441890691e-01 9.5573963857564947e-02 3.8798886326495968e-01  6.6032579267772218e-01 1.6962089905416791e-01 8.0426206917887288e-01  6.7217193243448725e-01 1.8946071612170418e-01 8.2667628782160041e-01  7.3728050891511931e-01 7.2280793797496146e-01 3.7096782346495605e-01  5.1934959565558092e-01 1.1403658009548727e-01 2.7738353620468420e-01  5.3170338235267356e-01 1.0510866124707954e-01 3.3573857194044743e-01  6.5400586196210508e-01 6.5658319681336585e-01 2.7490184959332625e-01  7.3970447198082012e-01 4.1855234627309684e-01 7.8039907597840263e-01  6.6346300825027760e-01 1.7519154436778928e-01 8.1044938141147971e-01  5.2871484813132330e-01 2.5913620915778862e-01 2.1821811632078569e-01  6.7606723397058577e-01 1.9706771513130941e-01 8.3279521510527432e-01  5.1430734293269720e-01 1.4030856703977521e-01 2.4004403464748383e-01  5.2252447401071034e-01 1.1947716020924871e-01 2.8781362069704441e-01  5.1113808923848947e-01 1.6450005941118767e-01 2.1120253306422340e-01  5.7539491954178523e-01 9.5697084953850667e-02 5.3475885077231011e-01  5.4878454870347737e-01 8.8228161407609612e-02 4.2327169018070865e-01  5.6126495218908523e-01 9.1484945684921895e-02 4.7542513868538688e-01  5.3456425020836185e-01 8.8171268589767107e-02 3.5989481231423753e-01  5.4608429358614941e-01 8.8648647526176752e-02 4.1006952092087640e-01  5.2749471379719415e-01 9.0322025507262815e-02 3.2848456664426168e-01  5.1524291876350181e-01 9.4742846467923345e-02 2.7214441786769195e-01  5.1274305968122214e-01 1.0066627168795900e-01 2.5916530283615019e-01  5.0338789276144214e-01 1.0930886021579984e-01 2.1406887371450511e-01  5.0535064067672086e-01 1.1802672527863813e-01 2.1844446381336080e-01  6.6841062730767375e-01 7.3628764074385511e-01 2.0643802381590884e-01  6.6766283195677778e-01 1.8272030932712974e-01 8.1837527706469226e-01  5.1690161433765769e-01 1.0750099497029840e-01 2.7491379745815092e-01  5.1568871481891232e-01 1.2633363934446382e-01 2.5933407283724902e-01  7.5321385627781434e-01 3.7760502845612387e-01 8.4221028405065379e-01  5.0628731990949183e-01 1.0080839137253175e-01 2.3027772982277295e-01  4.9729224437475567e-01 1.1859114286771033e-01 1.8327409078474557e-01  5.1599314044276723e-01 2.1584717143770410e-01 1.9623384828477608e-01  5.2186361028107409e-01 2.5803989471801431e-01 1.8921414210361820e-01  6.8283969855653770e-01 2.1064980826938662e-01 8.4215579600389778e-01  7.9136352450797121e-01 5.3998156544694509e-01 7.0286712115885908e-01  5.0044955256261536e-01 1.0670743946346936e-01 2.0242871175158189e-01  4.9355473500777430e-01 1.2631991066674308e-01 1.6354479447111042e-01  4.9409336872994342e-01 1.4171377090037149e-01 1.5721238252092631e-01  6.4225034683187165e-01 1.5482309757646534e-01 7.5726172975441608e-01  5.8348870256401619e-01 1.0934356124641678e-01 5.5933356545321844e-01  5.3202824038155894e-01 1.1736908719759381e-01 3.3767452157267142e-01  5.3971145542281873e-01 1.3880162330417500e-01 3.5905664772929802e-01  5.2333743285967793e-01 1.4839214027976863e-01 2.7932189575597849e-01  5.5964129947744035e-01 1.6615797456392126e-01 4.2897270340580490e-01  6.8594310449252249e-01 2.1941442134272099e-01 8.4470847402934901e-01  6.9462215245925818e-01 2.3968955329420713e-01 8.5205563643270688e-01  6.9592099131900065e-01 2.4870422053710628e-01 8.4930982895127916e-01  6.4882621616391045e-01 7.4133353243267874e-01 1.4958327298992605e-01  4.9161905511222398e-01 1.5071945169168013e-01 1.4183172007729974e-01  5.2373767541505034e-01 9.0872030949891838e-02 3.0972979680047164e-01  5.3939388918811093e-01 3.3709222954920365e-01 1.9754269419190659e-01  5.5333390566768148e-01 3.9264769372651021e-01 2.0497253072850011e-01  5.2301774381977284e-01 2.5940263270259628e-01 1.9369926772770293e-01  6.0679451053788125e-01 1.2374517998294447e-01 6.4419006375095755e-01  6.4454556890862891e-01 1.5073981614805979e-01 7.6634221782700795e-01  5.7823060051728226e-01 9.9222822982054246e-02 5.4371662705255197e-01  5.6218566323983310e-01 9.2894919946773569e-02 4.7825175285387150e-01  5.9998711692526541e-01 1.1327281736946683e-01 6.2550090024530636e-01  5.8360502946017878e-01 1.0309860430724652e-01 5.6408221916303825e-01  6.2616850280950198e-01 1.3687297383720040e-01 7.1120545171835314e-01  6.1081563835424724e-01 1.2270065410609192e-01 6.6236937777796590e-01  5.7075975820708524e-01 9.6773217643501996e-02 5.1318692304213454e-01  5.9900993808322689e-01 1.1354219904321305e-01 6.2130697318513606e-01  5.6216270713447947e-01 9.3484899904397165e-02 4.7784092470127937e-01  5.9171246672004696e-01 1.0863649270397963e-01 5.9449998081079836e-01  6.3445357050863160e-01 1.4622807483673211e-01 7.3518613766489316e-01  6.2991505966864159e-01 1.4127422830673778e-01 7.2214257026301720e-01  6.7417218785627664e-01 2.0073778308700901e-01 8.2466408860449547e-01  6.7270388282230942e-01 1.9814355040570852e-01 8.2207646768997455e-01  5.8900395601130684e-01 1.0701769956853745e-01 5.8418163323387828e-01  6.9403585987824445e-01 2.3494100899559595e-01 8.5365917771853184e-01  7.0623779299690714e-01 2.7779345932136851e-01 8.5036014550932648e-01  7.0865096445952280e-01 2.9536663977285632e-01 8.4167154439080349e-01  7.2005990328513381e-01 3.3738420517890921e-01 8.2765356558203196e-01  7.2432506441873790e-01 3.7094375273500829e-01 8.0330465654213412e-01  7.3449885275170079e-01 4.2790047386716756e-01 7.6125277870601948e-01  7.3872134439996928e-01 4.8046276046811265e-01 7.0733604288150498e-01  7.4437341846353422e-01 5.4524360142742856e-01 6.3504758226460711e-01  7.4443900193608847e-01 6.0427768504909807e-01 5.5529325657545281e-01  7.4437280920379156e-01 6.5760613583105298e-01 4.7932346248856084e-01  7.4183381522335279e-01 5.4420052139882458e-01 6.3217509820307638e-01  7.4033936603139361e-01 6.9850403422295615e-01 4.1254200290349091e-01  7.3858752841914022e-01 7.2363428068331459e-01 3.7200387422746745e-01  5.5870371843123878e-01 1.0562947151102786e-01 4.5400652265405134e-01  7.1273400781166507e-01 2.7568995394242146e-01 8.6276187055645992e-01  5.8408977391639694e-01 1.7269747404617164e-01 5.3095583119575906e-01  6.1774845921534149e-01 2.2898737958266385e-01 6.2279129117710397e-01  5.8975374220228294e-01 2.0341113325408464e-01 5.3027475332383145e-01  6.5466060571544826e-01 3.0911392615381922e-01 6.8221391585065649e-01  6.8483926509413229e-01 3.8420694209388012e-01 6.9773529365153164e-01  6.2650505042445459e-01 2.5865679726762025e-01 6.2964648623943198e-01  7.3051608582684879e-01 7.1326068014045685e-01 3.7319855672619301e-01  6.9088441096460951e-01 4.1903768990751861e-01 6.7549267899071630e-01  4.9668342043219771e-01 1.1163071251060781e-01 1.8411727726368493e-01  4.9570866283216120e-01 1.6823074079793912e-01 1.4764807618558667e-01  4.9371720361311888e-01 1.7799988021487020e-01 1.3345216006190846e-01  6.5749700008580603e-01 1.7459863617963736e-01 7.9391733973281575e-01  7.3517273886325096e-01 7.2980470892786520e-01 3.5716538219268579e-01  7.7605597314767494e-01 4.7121213844131971e-01 7.7012693156573486e-01  5.1131890035172267e-01 1.9056875938824241e-01 1.9434257691385790e-01  7.5902605978573578e-01 4.0382726150318499e-01 8.2315688470489889e-01  4.9008732000097838e-01 1.5554727566657961e-01 1.3284506433155685e-01  5.6765740037221513e-01 1.9462254717550759e-01 4.4222537749629992e-01  6.0142912986557895e-01 2.2867848013737258e-01 5.5754647634540067e-01  6.9332655852860137e-01 2.3099411083985319e-01 8.5253065651838000e-01  7.1604636962225032e-01 2.8367220856452041e-01 8.6314186301439610e-01  5.8103784993985619e-01 1.0953540899160991e-01 5.4716193331479890e-01  7.4644823277511918e-01 6.0771163110775372e-01 5.5383227924229539e-01  5.7903303273249507e-01 4.7419735830679721e-01 2.2740393931851288e-01  5.9711051303352514e-01 5.2747964970341465e-01 2.4005464593744766e-01  6.7265264850854101e-01 7.5660611958648083e-01 1.8850269328474240e-01  5.6400145373416677e-01 9.8192193918924864e-02 4.8059132810026767e-01  6.1091272546920727e-01 5.4824951417608303e-01 2.6726074017711765e-01  7.4635565384857305e-01 3.6481074064181951e-01 8.4446743421465154e-01  5.6139751017862627e-01 4.2532544374178344e-01 2.0761259632697679e-01  6.1381565021597828e-01 5.7291247271795054e-01 2.4893622796874262e-01  6.4353929511494279e-01 6.3917691299380952e-01 2.6607407418791335e-01  5.0411688943310884e-01 1.1404475785797030e-01 2.1385401316195010e-01  5.4023498476921628e-01 8.8200227155783198e-02 3.8441551734605695e-01  5.3488565815637834e-01 8.7994753754694177e-02 3.6090784705157158e-01  6.3481901352444936e-01 1.7954544949308882e-01 7.2720160286995494e-01  6.6256216857776218e-01 3.2356424303759129e-01 6.9415865030623014e-01  7.9459873037998030e-01 5.6244918316067138e-01 6.7662472372607974e-01  6.5349476748935831e-01 6.6492542945748501e-01 2.6219335093628127e-01  6.7164620206443171e-01 7.0724249487478086e-01 2.5505181295620488e-01  7.1424946880852880e-01 3.2582576622551224e-01 8.2685333717650267e-01  5.4524178192122852e-01 8.8344520250474054e-02 4.0619383570035411e-01  5.3815897294456783e-01 8.8672813533505312e-02 3.7464193716815930e-01  6.8788221775836667e-01 2.2757390874124486e-01 8.4471170039670773e-01  7.7099501893550970e-01 4.4956358010809189e-01 7.8914668571738711e-01  4.9207164220108923e-01 1.9424961818899752e-01 1.1672515805872644e-01  7.3523379073197348e-01 7.2467395748969121e-01 3.6484719912361890e-01  5.4029948043270171e-01 1.0673204723071973e-01 3.7377043956788880e-01  5.2529483700434321e-01 1.2296023801126597e-01 2.9858390368579318e-01  7.2880960712471310e-01 4.1153420646800698e-01 7.6905497004121026e-01  6.4664837022416788e-01 1.5948371105217191e-01 7.6825656216658034e-01  6.4453658902871813e-01 7.3224682216917547e-01 1.4987949095899383e-01  5.1344909895053170e-01 1.4768486459960076e-01 2.3331003496784344e-01  6.2878429520804535e-01 1.3938288475091692e-01 7.1863111128968493e-01  5.3456429902928337e-01 1.0180766119980590e-01 3.5702963012710459e-01  5.6404339122432401e-01 9.3355277811684914e-02 4.8568584134935533e-01  7.3518430360791620e-01 7.1422753683285545e-01 3.8104829051270500e-01  7.3689569761683260e-01 7.3040393921406732e-01 3.5912216375926026e-01  7.3223467105174322e-01 7.1827315304485728e-01 3.6966696029450502e-01  7.1829241223329432e-01 3.1773249400470238e-01 8.4178504383947905e-01  6.4156850612814875e-01 1.4500353933941079e-01 7.5960372835169299e-01  6.2547127581188189e-01 6.0631505585599232e-01 2.4960090026183526e-01  5.0220927869