<?xml version="1.0"?>
<VTKFile type="UnstructuredGrid"  version="0.1"  >
<UnstructuredGrid>
<Piece  NumberOfPoints="600" NumberOfCells="1069">
<Points>
<DataArray  type="Float64"  NumberOfComponents="3"  format="ascii">239.8 188 0  250.2 180 0  258.2 172.4 0  257 169.4 0  259.9 157.4 0  258.7 150.3 0  261 143.5 0  251.7 144.4 0  250 138.7 0  247 138.1 0  245.2 130.8 0  247.3 126.4 0  242.7 118.6 0  231.2 107.7 0  226 102.4 0  226.5 93.90000000000001 0  224.5 91.19999999999999 0  224.5 84.09999999999999 0  234.5 73.80000000000001 0  228.4 68.90000000000001 0  230 70 0  233.4 68 0  222.7 61.5 0  220.6 45.5 0  223.4 49.40000000000001 0  224 47 0  221.8 43.09999999999999 0  221 38.40000000000001 0  219.5 38.5 0  219.4 41.69999999999999 0  217.1 36.90000000000001 0  209.7 36 0  209.5 31.69999999999999 0  205.1 29.90000000000001 0  201.5 30.40000000000001 0  199.2 38.69999999999999 0  201.8 41.40000000000001 0  194.8 53.80000000000001 0  196.1 57.69999999999999 0  193 59 0  191.4 66.09999999999999 0  193.5 66.5 0  194.1 64.40000000000001 0  195.6 64.69999999999999 0  195.4 72.40000000000001 0  199.5 77.30000000000001 0  197.7 86.90000000000001 0  200.6 87.5 0  201.5 91 0  198 94.80000000000001 0  198.6 100 0  197.3 105.4 0  198 109.5 0  197 112.7 0  198.3 116.1 0  201.3 122 0  207.2 121 0  208.1 126.7 0  205.6 127.9 0  209.1 134.9 0  210.9 144.4 0  210.1 147.9 0  213 148.4 0  215.4 149.3 0  215.1 152.8 0  219.9 159.7 0  220.3 163.2 0  218.7 164.9 0  219.9 166.7 0  221.9 169.7 0  220 170.3 0  224.9 174.7 0  229.8 177.4 0  229.7 181 0  228 172.9 0  239 178 0  240.4 180 0  239 181.5 0  241.2 185.9 0  242.95 187.99 0  241.113414658978 187.995830429654 0  242.142964269982 187.9925620181905 0  243.6619187087475 187.2054164851183 0  244.631513060971 186.1368566403919 0  245.9520480703466 184.6815359886801 0  247.7505449816197 182.6994683581873 0  252.8666666668011 177.466666666539 0  255.5333333336077 174.9333333330727 0  257.9666666666661 165.4000000000025 0  258.9333333333339 161.3999999999974 0  259.3000000000018 153.8500000000108 0  259.849999999995 146.9000000000149 0  256.350000000011 143.9499999999989 0  250.8500000000015 141.5500000000051 0  246.1000000000042 134.450000000017 0  245.0000000000049 122.5000000000082 0  239.8250000000041 115.875000000004 0  236.9500000000083 113.1500000000079 0  234.0750000000041 110.4250000000039 0  228.6000000000041 105.0500000000042 0  226.25 98.15000000000002 0  224.5 87.65000000001388 0  227.8333333333301 80.66666666667 0  231.1666666666644 77.23333333333571 0  232.2500000000014 71.90000000000116 0  230.8999999999995 68.45000000000009 0  225.5500000000108 65.20000000001409 0  222.9333333333329 57.46666666667507 0  223.1666666666663 53.43333333333877 0  218.2500000000016 39.30000000000339 0  213.4000000000277 36.45000000000337 0  200.3500000000025 34.54999999999097 0  199.4666666666726 45.53333333332282 0  197.1333333333385 49.66666666665756 0  193.5499999999978 61.6999999999891 0  193.3999999999962 69.24999999999406 0  197.4499999999954 74.84999999999454 0  198.6000000000007 82.09999999999631 0  199.7500000000014 92.8999999999985 0  198.2999999999997 97.39999999999726 0  197.950000000001 102.699999999996 0  199.7999999999944 119.049999999989 0  204.2499999999946 121.5000000000009 0  207.6499999999987 123.8499999999919 0  207.35 131.4 0  209.9999999999998 139.649999999999 0  217.4999999999938 156.249999999991 0  223.4 172.2 0  234.349999999995 179.5000000000016 0  243.6879031604435 137.0140197666175 0  200.5383884465266 74.3488835611292 0  236.0631303447202 117.0934887033495 0  255.2860706566257 162.4962097513293 0  210.288597171716 124.9641969758756 0  200.5494091764226 101.6938959209836 0  221.0463142825589 155.4583368622661 0  213.2458552033902 137.0182369603261 0  202.5715495252679 76.72215432732189 0  203.3954031521662 88.63888283314805 0  204.2685850489914 91.3771816532193 0  227.6002395557545 108.6285485308707 0  203.628067965887 73.80056467640915 0  205.5882193517793 76.19298591547215 0  219.3893731065793 59.36381842571261 0  222.6962970705901 100.2685345181304 0  206.2147206748961 89.23684943534887 0  224.5717795045128 68.90112930058935 0  207.1505150846513 91.97409496002633 0  206.6973804802006 73.20614062920998 0  209.0198262461606 75.84435446174592 0  204.6828826698789 70.78585325419728 0  244.5505030757118 140.1958289722003 0  241.2713205316759 139.2760911012237 0  242.0887623359319 142.523888210035 0  238.8201809392432 141.5810446831215 0  239.6254755922404 144.8663288044098 0  238.0282380951174 138.3361101328854 0  235.5650201404635 140.6403522599634 0  234.7868703265066 137.3765638391416 0  232.3671992655526 139.7040340002533 0  231.5735594060041 136.4371341666237 0  203.6025996895933 45.13245413868078 0  209.0094500142995 89.77916893533093 0  234.0048963149566 134.0619286436701 0  230.7388584519252 133.0932019642386 0  256.0202376970822 152.4353991158102 0  233.1239077827668 142.9168616681826 0  229.9476468053365 142.0041066209365 0  207.8316386186595 70.1760146256688 0  205.8080150778045 67.77328389450008 0  210.1255397865818 92.58553759086743 0  249.9530000513888 175.7831884132348 0  230.7520925362455 145.2114145624654 0  227.5614746466729 144.2879078440436 0  226.855634298717 141.1029513419209 0  221.109901317114 86.07738557802102 0  221.3898452401857 82.41394785245797 0  233.1906280944642 130.7538222264552 0  229.849944657733 129.8156996791429 0  227.4514186000422 132.1240250470279 0  226.5693510741891 128.7503487535618 0  208.0732626511005 94.86195720558288 0  211.0579654481564 95.54875779444082 0  209.0041892644107 97.86214677695602 0  216.7276956906574 41.503774594868 0  224.4517166451922 143.3327513982825 0  222.7890579510523 161.0597281586643 0  209.0698801997012 67.10609773523754 0  206.9141710660066 64.58868367949086 0  211.5265666272545 70.15591236789595 0  218.2872405225432 83.97244872861398 0  207.7311279855657 86.71297189445447 0  242.9081583239214 145.8040728889821 0  240.4621480942806 148.1601866910276 0  243.7562457682554 149.0907552716282 0  241.3145175595932 151.4726760652338 0  244.57940289053 152.3666461928266 0  242.1615185950008 154.7794567484269 0  238.8718789959482 153.837018554675 0  239.7122407256576 157.1523621063041 0  236.4289375384117 156.2070529629317 0  237.2412111497984 159.5248795948406 0  240.5638486223294 160.4901132255754 0  238.1023772270576 162.8725976094984 0  241.406699334305 163.8359650846702 0  238.9630278156374 166.2175426435888 0  234.7361516891476 161.8928266488476 0  213.124654294145 93.56046727196781 0  212.0434836741439 98.5447165103807 0  209.9504013355788 100.9044854564887 0  213.0958854424699 101.5871381629478 0  210.9302285957408 103.9580876602797 0  214.0010858928389 104.7096094485587 0  211.9141605791952 107.0615795921763 0  214.9890206858068 107.8102538193681 0  212.9269247290344 110.1901972673309 0  216.0786784436673 110.8721476340726 0  209.7617142319936 109.4041944495815 0  213.932211035267 113.2627867337288 0  217.0813395790477 113.941453344218 0  218.441750941724 80.63655841437071 0  242.2412500877879 167.1781012200828 0  229.2280100589433 126.5393356137107 0  225.9203624138538 125.4446005931909 0  223.3571983269889 127.7265579015054 0  222.6136526124249 124.535547281476 0  225.3056527306165 122.1016033222114 0  220.3254947810712 126.7409252226328 0  201.0777098578984 116.3274181811247 0  219.7857338015156 123.3740225787907 0  228.3312248450329 147.5116593523427 0  223.7608055035202 140.2236832285434 0  221.3299816979287 142.3937311365609 0  245.4512147769152 155.7068319139237 0  214.9140854911084 116.3016229600955 0  241.4261562479406 177.9745543740275 0  202.8157779574545 68.56000166221941 0  240.0703975438099 175.788326095019 0  222.1092806876692 145.4935485219417 0  220.9446699547174 129.9892194059113 0  217.7131509102484 129.0121441451285 0  231.966766611991 173.6290727753235 0  244.7035101352062 164.8150950666352 0  215.4589412711449 82.35047797613059 0  218.5358717759109 108.3057574313637 0  210.0910095413371 63.89870618133642 0  207.8879031726656 61.27101234314142 0  219.5945508510063 49.26517889117938 0  204.4640092132492 79.16637174968085 0  219.054165325738 63.24726086273807 0  245.5364828646638 168.1932520030346 0  204.1722248369768 62.21708558088665 0  205.6821920907016 58.50393459316535 0  209.6155639374877 57.86856426712311 0  196.5553895895766 69.81481204083099 0  235.6123608690412 152.8874163252039 0  233.2157615582107 155.2532908181879 0  240.6837858645011 122.4172544901715 0  210.8141135626509 127.8682271622992 0  245.3812170314571 182.2522052029404 0  206.9456715292139 54.99559933887414 0  210.5075513436263 54.0697256538542 0  207.9169085133073 103.1765167571325 0  223.2431750051092 164.070583057325 0  225.7483443677002 162.1151723759482 0  206.0378951001477 96.94148998994152 0  242.6796154699829 175.6597339900036 0  214.6838055972238 146.7252062992904 0  211.9990465678071 115.5576487680909 0  221.4613603554043 78.78973924681317 0  218.3291154698718 77.0769598533563 0  200.3358005877804 107.1120377748188 0  247.4072167499741 149.4171847419639 0  211.6397508657857 39.55684201930068 0  226.8243927196049 72.17619845696734 0  215.354291780634 85.55308818793476 0  236.5600255652378 131.6759521500912 0  226.0129792461303 165.2837912620818 0  218.060680211082 117.0067370946569 0  220.2726382852709 114.6051380114157 0  212.8793579154693 118.3711453694285 0  215.022609143906 99.35520341734289 0  203.0459334752391 85.71272568041367 0  202.8915272398735 55.67723839797077 0  220.5465456567309 139.1747891305704 0  239.6921265383864 169.3260213165692 0  236.6712881821608 168.5826958099534 0  218.0125893802946 141.5012621699478 0  201.3193403438535 110.3399099823547 0  203.3799271438462 107.9393487975089 0  248.1978655115356 165.7601936670729 0  248.8804221900089 169.2105116441819 0  237.1867529048816 147.1869371163321 0  236.7369473929319 176.2832209442509 0  247.3010859001464 162.3677476585113 0  204.3727171343656 110.8209535355564 0  235.7766571132668 128.3537547116865 0  217.8932394506906 150
[...]
<PointData  Vectors="f_12"> 
<DataArray  type="Float64"  Name="f_12"  NumberOfComponents="3" format="ascii">7.3386424301614195e-01 6.7789939343427030e-01 4.3335358515404954e-01  7.3728682916127330e-01 4.6478252250444857e-01 7.2723526971763619e-01  7.4893034564587491e-01 4.1782381003975805e-01 7.9804870595465416e-01  7.3758720545394485e-01 3.7258176238564050e-01 8.2649894107138910e-01  7.4769505972782369e-01 3.6374237870070453e-01 8.4887395040660996e-01  7.6179285087935611e-01 4.0566409408771842e-01 8.2581521881565068e-01  7.7836195537951758e-01 4.6358608896566411e-01 7.8231372974093372e-01  7.4436924658314418e-01 3.5009233081623703e-01 8.5579446686375316e-01  7.4819304244942497e-01 3.5718203272836302e-01 8.5466787235259245e-01  7.4418029644878514e-01 3.4669185409400932e-01 8.5884411219234447e-01  7.4193902511267529e-01 3.4943580125624402e-01 8.5481728306691895e-01  7.5470761987354051e-01 3.8455320907609192e-01 8.4189587813790012e-01  6.8175256065600398e-01 2.1415136607868832e-01 8.4361648351641760e-01  5.1746850282971224e-01 9.5178235983331819e-02 2.8413029662073985e-01  5.2546956028090319e-01 1.3174428216074649e-01 3.0079630915434646e-01  6.1915389068346793e-01 2.4305910428509603e-01 6.2228433491367319e-01  6.5334368628453476e-01 3.7180022916839267e-01 6.1670013333971585e-01  6.0258182688489981e-01 5.7100774202623306e-01 2.0911435576124790e-01  5.0643733677222236e-01 3.3675323992484046e-01 7.3175163521294689e-02  5.0452097255904060e-01 3.2688760264458550e-01 7.3368788258003081e-02  5.0497434436187660e-01 3.2934465940484942e-01 7.3243656279482997e-02  5.0387703521033522e-01 3.2411479436526969e-01 7.3057260932904211e-02  4.9997816597999306e-01 3.0117383101865874e-01 7.5052233806743085e-02  4.9094281284661273e-01 2.4671016762647011e-01 7.9094356561719939e-02  4.9404722473829088e-01 2.6630154293954422e-01 7.7404288349227260e-02  4.9086582314289395e-01 2.4677036184324808e-01 7.8802524166553978e-02  4.9015838884009438e-01 2.4172242002221150e-01 7.9501072808131484e-02  4.8923914599276747e-01 2.3609681811323310e-01 7.9830183792685805e-02  4.8926177938520565e-01 2.3617763222079313e-01 7.9855957760247911e-02  4.8942639390278209e-01 2.3661638066173096e-01 8.0136927997007459e-02  4.8710943591362632e-01 2.1868526825605922e-01 8.3074436606192542e-02  4.8390826646728902e-01 1.8657281464422248e-01 9.0962442851030917e-02  4.8231412714454086e-01 1.6951569308179779e-01 9.5208958717943062e-02  4.8180958572195998e-01 1.6393413716866029e-01 9.6606646821109379e-02  4.8169786928387276e-01 1.6269689924185987e-01 9.6918245830307920e-02  4.8276643630755289e-01 1.7619719216948110e-01 9.2976202483104245e-02  4.8406450247509342e-01 1.9021526969905311e-01 8.9401053411233514e-02  4.8668476592430693e-01 2.1876722190258213e-01 8.1588791126754587e-02  4.8725602942582835e-01 2.2314603759169249e-01 8.0909408919238202e-02  4.8719611916075101e-01 2.2309815008105835e-01 8.0736036754433360e-02  4.8768247776964868e-01 2.2710743070162381e-01 7.9981544334514765e-02  4.8782970628406624e-01 2.2809976720712971e-01 7.9883317467779866e-02  4.8765147085117710e-01 2.2640672660722766e-01 8.0294334881500687e-02  4.8791221562739778e-01 2.2825268983177599e-01 8.0067010087565851e-02  4.8887400365850925e-01 2.3565146069293830e-01 7.8866646439347737e-02  4.9496430115432538e-01 2.7235667700369870e-01 7.6781251205391421e-02  5.2272731755287516e-01 3.9052481839854147e-01 9.0569083572188055e-02  5.4149746671042653e-01 4.4993271590895162e-01 1.0877685321795713e-01  6.0469895725442580e-01 6.1089671404437051e-01 1.7335738167920398e-01  6.4605683484339693e-01 6.9356556509686629e-01 2.0434717299816857e-01  6.8707635173509107e-01 7.0785717435514817e-01 2.9047131624288403e-01  7.2337085141420787e-01 7.0547054107311602e-01 3.7221363403180246e-01  7.4068307456509197e-01 6.8158949189408391e-01 4.3865197418723378e-01  7.4907518769912695e-01 6.7080458599448434e-01 4.6826046972906210e-01  7.5142325079298600e-01 6.4281666366300239e-01 5.1310631244510430e-01  7.4337102473050420e-01 5.7577857436141178e-01 5.9454093808524378e-01  6.8730438369262870e-01 4.7883952410742697e-01 5.9266595986290427e-01  6.4547083417350504e-01 5.9983394999173079e-01 3.2153543110857913e-01  6.4300852382012375e-01 6.2772905211406504e-01 2.7964916085195068e-01  5.8597946078976615e-01 5.3411089557938707e-01 1.9417936526726481e-01  5.0900660702494827e-01 2.1487567049799119e-01 1.6985009881032070e-01  5.0232109108073209e-01 1.7372872694009792e-01 1.7043647465179590e-01  5.0798628222270426e-01 1.6183374061733313e-01 2.0075394567411664e-01  5.2430975760524090e-01 1.2219613873944581e-01 2.9421656550680042e-01  5.4985867578023251e-01 9.3924675852515169e-02 4.2465996094433422e-01  5.7743083128849215e-01 9.2188378519984640e-02 5.4658682395917368e-01  5.6299884032432157e-01 8.7332437103427876e-02 4.8631866161296444e-01  5.5826525592601339e-01 8.5553975602068857e-02 4.6690432839990526e-01  5.5582447424072989e-01 8.4859904715183412e-02 4.5675342257662876e-01  5.5312886090660285e-01 8.4399090737249036e-02 4.4556111472518639e-01  5.5267380549270451e-01 8.4075308664220097e-02 4.4360572016051025e-01  5.5378007859947165e-01 8.5676070184376951e-02 4.4876587513954652e-01  5.8705270446911628e-01 1.0567501826454499e-01 5.8498062186373678e-01  5.9407073514957065e-01 1.0912228164802500e-01 6.1287756326578113e-01  5.6045502453095797e-01 9.0024581707397744e-02 4.7660211835481509e-01  6.2481367694989665e-01 1.8581804219221393e-01 6.8218432080892022e-01  6.8931040962171874e-01 3.7093113357393181e-01 7.1776991766406295e-01  7.1081243326402965e-01 4.5745345694480083e-01 6.8211080231890997e-01  7.3292613225384184e-01 6.3714946179815768e-01 4.9220629382575648e-01  7.3384819669228984e-01 6.5832582973285503e-01 4.6190166290278800e-01  7.3369921331424015e-01 6.6594661061179417e-01 4.5070496450644304e-01  7.3377310019865005e-01 6.6131331745818467e-01 4.5753792425822448e-01  7.3383233421517402e-01 6.4878844227916954e-01 4.7550568266329185e-01  7.3371458806289425e-01 6.2327474720984222e-01 5.1143181416185979e-01  7.3416881702827164e-01 5.8258033303937951e-01 5.6880065917230038e-01  7.3400073901774010e-01 5.2061668935146288e-01 6.5051603053104712e-01  7.4130261331902092e-01 4.3428873088219627e-01 7.6838128729961230e-01  7.4713064335274360e-01 4.2555169743719351e-01 7.8712181549909510e-01  7.3008401018778946e-01 3.3219039744098050e-01 8.5135329651112335e-01  7.3651464834554536e-01 3.3824281983426208e-01 8.5568101293404331e-01  7.5268545013417354e-01 3.7725596006164630e-01 8.4241540630523104e-01  7.7384540345025510e-01 4.4713377125211057e-01 7.9566115919327540e-01  7.7021994937717486e-01 4.3368437242454494e-01 8.0678229543505564e-01  7.4527164350198005e-01 3.4974880804860214e-01 8.5720145430764394e-01  7.4295283457451478e-01 3.4721279869634758e-01 8.5756501319274647e-01  7.3046703681059777e-01 3.1880334389423487e-01 8.6616342600041762e-01  6.2573694207981523e-01 1.3868823857455834e-01 7.1490435032428923e-01  5.7475454137590554e-01 1.0046182171191216e-01 5.3275503305966820e-01  5.3903527279454255e-01 8.9869429275046570e-02 3.8176847735772812e-01  5.1130501814757479e-01 1.0879525180294984e-01 2.5096929998554507e-01  5.6968165847231822e-01 1.6406452731088733e-01 4.8010156430697770e-01  6.5424778687364915e-01 5.4271759737787495e-01 4.1727507592520846e-01  5.3787248173329760e-01 4.4765780577928621e-01 9.8826885761394048e-02  5.1186563243561167e-01 3.5858989120605483e-01 7.6451086476869309e-02  5.0583131226753675e-01 3.3406956191710097e-01 7.2968078047801643e-02  5.0452677328156115e-01 3.2722641329836050e-01 7.3158790945839297e-02  5.0229272705977568e-01 3.1461850380001616e-01 7.4027494630994450e-02  4.9785501667100523e-01 2.8890862285727698e-01 7.5850174537050813e-02  4.9580378908141459e-01 2.7689428907614622e-01 7.6623875533398084e-02  4.8790587600363983e-01 2.2502627248803672e-01 8.1985258514932699e-02  4.8600761572837553e-01 2.0811227053083586e-01 8.5587575488780862e-02  4.8207497739613203e-01 1.6770192379676216e-01 9.5408154188898336e-02  4.8567750945521404e-01 2.0824229866822649e-01 8.4397363532401987e-02  4.8627367111982711e-01 2.1505135394755748e-01 8.2403284179510067e-02  4.8737412393071045e-01 2.2438070838829141e-01 8.0570672883197261e-02  4.8796621768424703e-01 2.2913445269541588e-01 7.9724666237647096e-02  4.9052074029002191e-01 2.4670827970113374e-01 7.7706706573819839e-02  5.0749550267103238e-01 3.3175033569583551e-01 8.0230209214833356e-02  6.3270561037474649e-01 6.7028539769690421e-01 1.9409336783997333e-01  6.6257725818288815e-01 7.0499745945028724e-01 2.3359925930836919e-01  7.0910279802149556e-01 7.0750180377352512e-01 3.4056057704873555e-01  7.4809231679119803e-01 6.0205134831835583e-01 5.6600008940648328e-01  7.2784690018056375e-01 5.3506481590807620e-01 6.1848703206864342e-01  6.6270129888531126e-01 5.3376539898790210e-01 4.5594060975279738e-01  6.2423709551520823e-01 6.1122430316047327e-01 2.3955957640503639e-01  5.3912287091061006e-01 3.6852662311237111e-01 1.7164628904873025e-01  5.7295163249599712e-01 9.1206076735734817e-02 5.2903528487953255e-01  5.5331220311740470e-01 8.5278438667392389e-02 4.4658909568673832e-01  5.9213313461687056e-01 1.1160978863612041e-01 6.0582429943841642e-01  7.3188579995264513e-01 3.1731989762121549e-01 8.6554661110668396e-01  4.9198863872953680e-01 2.5561376935974311e-01 7.7170353386248100e-02  5.8552789549582585e-01 1.1286156835471049e-01 5.6863475125710339e-01  7.2004056403154970e-01 3.0153461686518229e-01 8.5892444357326214e-01  6.4827146972347838e-01 5.5830842891461763e-01 3.8120831385532045e-01  7.0097722169996080e-01 6.9247314653740200e-01 3.4468864232518209e-01  5.7768836093804976e-01 9.2565264638556785e-02 5.4843902285192780e-01  5.5068736251255201e-01 4.1633570287427235e-01 1.7461258243492442e-01  4.9653437013186935e-01 2.7996537193618759e-01 7.7170268825125385e-02  5.7509821777941006e-01 5.4046828299917060e-01 1.4511103257967620e-01  6.1588835248659612e-01 6.1932342274470720e-01 2.0024159049465398e-01  5.1076592632945961e-01 1.0964872224552256e-01 2.4715695604139995e-01  4.9406662467166274e-01 2.6726482028931703e-01 7.6890427725413601e-02  4.9995898525318644e-01 2.9637842900239159e-01 7.8083180464731616e-02  4.9838328303426788e-01 2.9195071652474275e-01 7.5667470957681546e-02  5.5262621396608724e-01 1.5778949173258466e-01 4.0574120574215067e-01  6.0087256617543838e-01 5.8609608861439044e-01 1.8684305864508749e-01  5.0391686177653805e-01 3.2316685429396191e-01 7.3823063653209689e-02  6.4026947071517093e-01 6.2483564385503110e-01 2.7086893452320476e-01  4.9675568292305849e-01 2.8196983908535578e-01 7.6631744867512785e-02  5.0517339615125234e-01 3.2123956434349149e-01 7.9320188507072786e-02  4.9320913002543110e-01 2.6237166964701397e-01 7.7051472435159335e-02  7.3068371741558069e-01 3.1157823945193869e-01 8.6775422294250193e-01  7.0423866004032276e-01 2.5419812848143403e-01 8.6230442468591828e-01  7.0254240856667272e-01 2.4788977228075942e-01 8.6275755510782193e-01  6.7051051546226625e-01 1.9242178170135296e-01 8.2128088194263926e-01  6.6978609761717955e-01 1.8841280929936155e-01 8.2157103528554343e-01  6.5579174591622624e-01 1.7765521805770576e-01 7.8601291325641764e-01  6.2223372569118507e-01 1.3740384391189495e-01 6.9674219453222819e-01  5.9598808116884061e-01 1.2430080640346533e-01 6.0155546381421587e-01  5.7198003376346140e-01 1.0976430654098152e-01 5.1013557027581602e-01  5.4761776577112298e-01 1.1191306781373322e-01 4.0346681548721269e-01  4.8565988652880349e-01 2.0652395677584512e-01 8.5340685142027362e-02  6.2824308605219026e-01 6.1046462809511914e-01 2.5016306400825900e-01  5.7044849759510297e-01 1.1746381800552626e-01 4.9923706373894039e-01  5.3001212042981027e-01 1.2248547291608064e-01 3.2067575936041592e-01  7.4816819078334562e-01 3.6487097739429530e-01 8.4722988766333951e-01  5.9786380553951735e-01 1.1539067743480527e-01 6.1588889672477154e-01  5.5719212241910177e-01 1.0349952549119337e-01 4.4993445154258010e-01  4.9564520281998448e-01 2.7648867483402678e-01 7.6368891296595701e-02  4.9324204861935489e-01 2.6214207699351094e-01 7.7288924306285450e-02  6.6273603778049783e-01 5.9282576721473335e-01 3.8024419371186630e-01  7.2488780508599793e-01 3.8809128539902171e-01 7.8847367964149073e-01  5.8296067960614184e-01 1.0410385753357358e-01 5.6149136006876355e-01  5.4964254323652684e-01 1.0047830281215522e-01 4.1874379098438724e-01  5.2824989086889262e-01 1.1485860415581454e-01 3.1662911905694235e-01  6.3899338212504941e-01 5.8640065072658476e-01 3.1408432107440915e-01  5.8793110872923826e-01 5.5907424841785480e-01 1.7158222644906937e-01  5.5080119862166799e-01 1.1734330516334718e-01 4.1483700330988699e-01  5.1973785998035549e-01 1.3812010494192881e-01 2.6672099265670818e-01  5.1256559711433136e-01 1.6399319823929248e-01 2.1914027098543051e-01  5.1192365574748067e-01 1.9558294842373777e-01 1.9502795895259878e-01  6.7083717452979552e-01 5.9907447034079309e-01 3.9599753319846304e-01  6.7579328299809638e-01 5.0544468059337755e-01 5.3113639641724930e-01  6.8097431820144982e-01 5.1027858126380543e-01 5.3989546004467937e-01  4.8838589655212927e-01 2.2838432655937441e-01 8.1589940420070631e-02  5.2540678589361656e-01 1.1592367101057720e-01 3.0352614785224247e-01  5.7023895328888219e-01 9.0033155384177527e-02 5.1617801833784449e-01  4.9547972420671416e-01 2.7549143765953565e-01 7.6434782017788999e-02  4.9343963576148941e-01 2.6284898830950942e-01 7.7504860189483465e-02  4.9882461064787270e-01 2.9448297677131652e-01 7.5559578885072282e-02  6.0696472321704276e-01 5.8507146649634889e-01 2.0888335347671735e-01  5.8097243166834445e-01 5.4849661267515404e-01 1.5817637844302077e-01  6.8891403453690125e-01 2.2174155199096707e-01 8.4895437128906426e-01  6.5522736596597198e-01 1.6752871515406251e-01 7.9099672443431457e-01  6.6867944284807834e-01 1.8892739158457275e-01 8.1722253881384777e-01  6.3427275589305310e-01 1.4274865430807313e-01 7.3737205587392340e-01  6.4832136847092214e-01 1.6125460625586222e-01 7.7380237423585108e-01  6.1486460043817737e-01 1.2435581960039394e-01 6.7863761957957691e-01  6.0642300605291655e-01 1.1536614842148293e-01 6.5093776267298264e-01  5.8955063766114346e-01 1.0419384063179303e-01 5.9063763429953808e-01  5.8610653486424358e-01 1.0047813537471491e-01 5.7777936632449878e-01  5.7228068823933409e-01 9.4051829520328215e-02 5.2413965200831458e-01  5.7908303964828411e-01 9.9726893738680364e-02 5.5098967487400541e-01  5.6510367062845390e-01 9.2847482202507811e-02 4.9547141791274046e-01  5.7674118875281533e-01 1.0196906472947988e-01 5.4180136472499885e-01  5.6607934227274193e-01 9.7311499021738704e-02 4.9934838571065387e-01  5.6180777270653637e-01 8.9312093460485228e-02 4.8176996674755862e-01  6.7305051064804999e-01 5.0854383452813567e-01 5.1910348632767311e-01  6.5961114578573143e-01 3.7960634994793546e-01 6.2870925825292490e-01  6.6631574243844260e-01 3.9429337395013742e-01 6.3394659313970703e-01  6.2265215089315740e-01 2.7428861738073362e-01 6.0420904206831527e-01  6.3563016734801414e-01 3.0133338159201084e-01 6.2591789052604641e-01  5.8736991346853318e-01 2.2625693963388116e-01 5.0357010498558352e-01  6.0643763249824967e-01 2.5682474200452698e-01 5.5528876646924374e-01  5.6407726790730506e-01 2.2147977732220087e-01 4.0640995188355061e-01  5.8884682016261458e-01 2.5725154484782486e-01 4.8179565895010679e-01  5.5362823862991917e-01 2.4584633660450364e-01 3.3933887724686729e-01  6.3671093515085497e-01 3.0517927678986173e-01 6.2515567535160987e-01  5.8439103014597527e-01 2.9181007731172731e-01 4.3065631780727226e-01  5.5376426075265694e-01 2.8915818377005070e-01 3.0172666335824277e-01  5.6344849371541839e-01 5.1311862325243274e-01 1.3097196599664920e-01  5.8454149989565907e-01 1.1313181234454268e-01 5.7065924268589574e-01  5.1591703062679317e-01 1.4994441263528735e-01 2.4286390435368313e-01  5.1355634503799519e-01 2.1473577600374755e-01 1.8825846965475077e-01  5.2302562857177604e-01 2.8583896050226004e-01 1.7344618215375013e-01  5.2959642063979195e-01 3.0987839449420235e-01 1.8094743308930381e-01  5.1471397449002532e-01 2.2000086568557339e-01 1.8924861551106700e-01  5.4770822190978463e-01 3.8836680689379433e-01 1.8680082779651769e-01  7.4604993154503951e-01 6.0535740288042372e-01 5.5782002734607572e-01  5.5497039170719198e-01 3.9383466667623579e-01 2.1095736421239236e-01  5.7456373115779646e-01 9.7981551906251782e-02 5.2986812150270046e-01  5.1367702183510100e-01 1.5012044583903369e-01 2.3225144573327877e-01  5.1332296282743728e-01 1.5255329303531481e-01 2.2909321528394577e-01  6.3264441601464272e-01 1.4422075216772029e-01 7.3229408758607484e-01  5.8771625454976839e-01 3.4801703279193735e-01 3.9003889440241923e-01  6.6189364025647857e-01 2.7249368780884486e-01 7.3704677058105594e-01  4.9131609724440800e-01 2.5051039669909581e-01 7.8013945758170722e-02  6.1909634151530024e-01 1.7255062427374165e-01 6.7281896262457652e-01  5.2554138078547807e-01 1.1427652233916034e-01 3.0505456987709051e-01  5.3548155075702919e-01 3.5028532443562632e-01 1.7133666423595459e-01  5.6716006846532241e-01 4.6178285552839382e-01 1.9532244733774928e-01  5.7182841586666067e-01 9.8563237222920042e-02 5.2344859051864878e-01  6.0074652192169142e-01 1.2286337115380443e-01 6.2983742228376771e-01  5.7558941989183499e-01 5.3867987172753284e-01 1.4902717231451784e-01  5.3119211918474307e-01 1.9703618270924597e-01 2.7984713706658221e-01  4.9544563220272253e-01 2.7488904082447957e-01 7.6688026303099524e-02  4.9339010884400675e-01 2.6215850511581612e-01 7.7765642021358994e-02  4.9314669061962246e-01 2.6049751060280302e-01 7.7988017781694438e-02  5.0580235059773049e-01 3.2159504836036684e-01 8.1142446186080533e-02  4.9980985698507341e-01 3.0028923803496432e-01 7.5064286840365785e-02  6.1862666030024671e-01 1.4895417044357254e-01 6.8481046052553196e-01  4.9119872739937676e-01 2.4871199474987177e-01 7.8713922334229622e-02  4.9124469998961623e-01 2.4856003766222864e-01 7.8961744012102278e-02  4.9343281327758465e-01 2.6215025089832994e-01 7.7918252318968997e-02  4.8860551471477148e-01 2.3355355022161761e-01 7.9222072032220925e-02  6.0357925402746893e-01 1.1141809775365930e-01 6.4195933624095813e-01  5.8762249992266302e-01 1.0003774874754502e-01 5.8399779953687447e-01  6.8035427318943398e-01 2.2009159129676784e-01 8.3037370702375812e-01  6.3149023573659446e-01 5.9288055814778784e-01 2.8496848848869827e-01  7.2937882119080688e-01 5.2473242939512654e-01 6.3574209671163673e-01  4.9079004699056250e-01 2.4522164889688663e-01 7.9480366696914898e-02  4.9234715705496146e-01 2.5504485849646930e-01 7.8676181204962073e-02  6.7926513648577314e-01 4.3005479828316240e-01 6.3138110366126177e-01  5.6019074729865648e-01 8.6426689276383292e-02 4.7485293272969037e-01  5.6428049104977285e-01 8.8072159505952083e-02 4.9171022191406150e-01  6.7848484804957887e-01 6.1839866297762736e-01 3.9176194566382538e-01  6.4679194570555154e-01 2.2250630257966822e-01 7.3337116053058293e-01  5.1079436907261966e-01 1.5795982429129854e-01 2.1474954654948081e-01  6.1868065595548860e-01 3.3992110560609123e-01 5.2155457114523129e-01  5.4519840482863580e-01 4.6658066678939542e-01 1.0817069009852406e-01  5.2949588749829701e-01 4.1804367009395543e-01 9.2745775428564603e-02  7.2968701715285567e-01 6.6839223675203430e-01 4.3864092839170155e-01  6.9365143255418560e-01 2.3311670871733634e-01 8.5315817460037591e-01  4.8591412707401666e-01 2.0691836362796587e-01 8.5972516165144258e-02  5.0739982507754355e-01 3.3972517133477814e-01 7.4412581869090180e-02  6.1721029179866493e-01 5.9653508123823773e-01 2.3030119284298797e-01  6.0811782441133633e-01 1.3979854220772711e-01 6.4049286846445286e-01  5.5655206106201671e-01 8.5660428725376617e-02 4.5986860950217640e-01  5.5726305155788713e-01 3.3741852530279864e-01 2.7271897015851393e-01  5.2927526862859975e-01 2.5793849915578382e-01 2.2220035123044418e-01  6.2143376827108732e-01 3.9846649847223947e-01 4.7095303171685171e-01  6.2154780646946872e-01 2.6952298905060473e-01 6.0438468810948009e-01  5.3971276138554714e-01 4.4302339910314120e-01 1.0817909889350419e-01  4.8888046502560850e-01 2.3312624959331965e-01 8.0397972215502794e-02  5.1338665587