<?xml version="1.0"?>
<VTKFile type="UnstructuredGrid"  version="0.1"  >
<UnstructuredGrid>
<Piece  NumberOfPoints="600" NumberOfCells="1069">
<Points>
<DataArray  type="Float64"  NumberOfComponents="3"  format="ascii">239.8 188 0  250.2 180 0  258.2 172.4 0  257 169.4 0  259.9 157.4 0  258.7 150.3 0  261 143.5 0  251.7 144.4 0  250 138.7 0  247 138.1 0  245.2 130.8 0  247.3 126.4 0  242.7 118.6 0  231.2 107.7 0  226 102.4 0  226.5 93.90000000000001 0  224.5 91.19999999999999 0  224.5 84.09999999999999 0  234.5 73.80000000000001 0  228.4 68.90000000000001 0  230 70 0  233.4 68 0  222.7 61.5 0  220.6 45.5 0  223.4 49.40000000000001 0  224 47 0  221.8 43.09999999999999 0  221 38.40000000000001 0  219.5 38.5 0  219.4 41.69999999999999 0  217.1 36.90000000000001 0  209.7 36 0  209.5 31.69999999999999 0  205.1 29.90000000000001 0  201.5 30.40000000000001 0  199.2 38.69999999999999 0  201.8 41.40000000000001 0  194.8 53.80000000000001 0  196.1 57.69999999999999 0  193 59 0  191.4 66.09999999999999 0  193.5 66.5 0  194.1 64.40000000000001 0  195.6 64.69999999999999 0  195.4 72.40000000000001 0  199.5 77.30000000000001 0  197.7 86.90000000000001 0  200.6 87.5 0  201.5 91 0  198 94.80000000000001 0  198.6 100 0  197.3 105.4 0  198 109.5 0  197 112.7 0  198.3 116.1 0  201.3 122 0  207.2 121 0  208.1 126.7 0  205.6 127.9 0  209.1 134.9 0  210.9 144.4 0  210.1 147.9 0  213 148.4 0  215.4 149.3 0  215.1 152.8 0  219.9 159.7 0  220.3 163.2 0  218.7 164.9 0  219.9 166.7 0  221.9 169.7 0  220 170.3 0  224.9 174.7 0  229.8 177.4 0  229.7 181 0  228 172.9 0  239 178 0  240.4 180 0  239 181.5 0  241.2 185.9 0  242.95 187.99 0  241.113414658978 187.995830429654 0  242.142964269982 187.9925620181905 0  243.6619187087475 187.2054164851183 0  244.631513060971 186.1368566403919 0  245.9520480703466 184.6815359886801 0  247.7505449816197 182.6994683581873 0  252.8666666668011 177.466666666539 0  255.5333333336077 174.9333333330727 0  257.9666666666661 165.4000000000025 0  258.9333333333339 161.3999999999974 0  259.3000000000018 153.8500000000108 0  259.849999999995 146.9000000000149 0  256.350000000011 143.9499999999989 0  250.8500000000015 141.5500000000051 0  246.1000000000042 134.450000000017 0  245.0000000000049 122.5000000000082 0  239.8250000000041 115.875000000004 0  236.9500000000083 113.1500000000079 0  234.0750000000041 110.4250000000039 0  228.6000000000041 105.0500000000042 0  226.25 98.15000000000002 0  224.5 87.65000000001388 0  227.8333333333301 80.66666666667 0  231.1666666666644 77.23333333333571 0  232.2500000000014 71.90000000000116 0  230.8999999999995 68.45000000000009 0  225.5500000000108 65.20000000001409 0  222.9333333333329 57.46666666667507 0  223.1666666666663 53.43333333333877 0  218.2500000000016 39.30000000000339 0  213.4000000000277 36.45000000000337 0  200.3500000000025 34.54999999999097 0  199.4666666666726 45.53333333332282 0  197.1333333333385 49.66666666665756 0  193.5499999999978 61.6999999999891 0  193.3999999999962 69.24999999999406 0  197.4499999999954 74.84999999999454 0  198.6000000000007 82.09999999999631 0  199.7500000000014 92.8999999999985 0  198.2999999999997 97.39999999999726 0  197.950000000001 102.699999999996 0  199.7999999999944 119.049999999989 0  204.2499999999946 121.5000000000009 0  207.6499999999987 123.8499999999919 0  207.35 131.4 0  209.9999999999998 139.649999999999 0  217.4999999999938 156.249999999991 0  223.4 172.2 0  234.349999999995 179.5000000000016 0  243.6879031604435 137.0140197666175 0  200.5383884465266 74.3488835611292 0  236.0631303447202 117.0934887033495 0  255.2860706566257 162.4962097513293 0  210.288597171716 124.9641969758756 0  200.5494091764226 101.6938959209836 0  221.0463142825589 155.4583368622661 0  213.2458552033902 137.0182369603261 0  202.5715495252679 76.72215432732189 0  203.3954031521662 88.63888283314805 0  204.2685850489914 91.3771816532193 0  227.6002395557545 108.6285485308707 0  203.628067965887 73.80056467640915 0  205.5882193517793 76.19298591547215 0  219.3893731065793 59.36381842571261 0  222.6962970705901 100.2685345181304 0  206.2147206748961 89.23684943534887 0  224.5717795045128 68.90112930058935 0  207.1505150846513 91.97409496002633 0  206.6973804802006 73.20614062920998 0  209.0198262461606 75.84435446174592 0  204.6828826698789 70.78585325419728 0  244.5505030757118 140.1958289722003 0  241.2713205316759 139.2760911012237 0  242.0887623359319 142.523888210035 0  238.8201809392432 141.5810446831215 0  239.6254755922404 144.8663288044098 0  238.0282380951174 138.3361101328854 0  235.5650201404635 140.6403522599634 0  234.7868703265066 137.3765638391416 0  232.3671992655526 139.7040340002533 0  231.5735594060041 136.4371341666237 0  203.6025996895933 45.13245413868078 0  209.0094500142995 89.77916893533093 0  234.0048963149566 134.0619286436701 0  230.7388584519252 133.0932019642386 0  256.0202376970822 152.4353991158102 0  233.1239077827668 142.9168616681826 0  229.9476468053365 142.0041066209365 0  207.8316386186595 70.1760146256688 0  205.8080150778045 67.77328389450008 0  210.1255397865818 92.58553759086743 0  249.9530000513888 175.7831884132348 0  230.7520925362455 145.2114145624654 0  227.5614746466729 144.2879078440436 0  226.855634298717 141.1029513419209 0  221.109901317114 86.07738557802102 0  221.3898452401857 82.41394785245797 0  233.1906280944642 130.7538222264552 0  229.849944657733 129.8156996791429 0  227.4514186000422 132.1240250470279 0  226.5693510741891 128.7503487535618 0  208.0732626511005 94.86195720558288 0  211.0579654481564 95.54875779444082 0  209.0041892644107 97.86214677695602 0  216.7276956906574 41.503774594868 0  224.4517166451922 143.3327513982825 0  222.7890579510523 161.0597281586643 0  209.0698801997012 67.10609773523754 0  206.9141710660066 64.58868367949086 0  211.5265666272545 70.15591236789595 0  218.2872405225432 83.97244872861398 0  207.7311279855657 86.71297189445447 0  242.9081583239214 145.8040728889821 0  240.4621480942806 148.1601866910276 0  243.7562457682554 149.0907552716282 0  241.3145175595932 151.4726760652338 0  244.57940289053 152.3666461928266 0  242.1615185950008 154.7794567484269 0  238.8718789959482 153.837018554675 0  239.7122407256576 157.1523621063041 0  236.4289375384117 156.2070529629317 0  237.2412111497984 159.5248795948406 0  240.5638486223294 160.4901132255754 0  238.1023772270576 162.8725976094984 0  241.406699334305 163.8359650846702 0  238.9630278156374 166.2175426435888 0  234.7361516891476 161.8928266488476 0  213.124654294145 93.56046727196781 0  212.0434836741439 98.5447165103807 0  209.9504013355788 100.9044854564887 0  213.0958854424699 101.5871381629478 0  210.9302285957408 103.9580876602797 0  214.0010858928389 104.7096094485587 0  211.9141605791952 107.0615795921763 0  214.9890206858068 107.8102538193681 0  212.9269247290344 110.1901972673309 0  216.0786784436673 110.8721476340726 0  209.7617142319936 109.4041944495815 0  213.932211035267 113.2627867337288 0  217.0813395790477 113.941453344218 0  218.441750941724 80.63655841437071 0  242.2412500877879 167.1781012200828 0  229.2280100589433 126.5393356137107 0  225.9203624138538 125.4446005931909 0  223.3571983269889 127.7265579015054 0  222.6136526124249 124.535547281476 0  225.3056527306165 122.1016033222114 0  220.3254947810712 126.7409252226328 0  201.0777098578984 116.3274181811247 0  219.7857338015156 123.3740225787907 0  228.3312248450329 147.5116593523427 0  223.7608055035202 140.2236832285434 0  221.3299816979287 142.3937311365609 0  245.4512147769152 155.7068319139237 0  214.9140854911084 116.3016229600955 0  241.4261562479406 177.9745543740275 0  202.8157779574545 68.56000166221941 0  240.0703975438099 175.788326095019 0  222.1092806876692 145.4935485219417 0  220.9446699547174 129.9892194059113 0  217.7131509102484 129.0121441451285 0  231.966766611991 173.6290727753235 0  244.7035101352062 164.8150950666352 0  215.4589412711449 82.35047797613059 0  218.5358717759109 108.3057574313637 0  210.0910095413371 63.89870618133642 0  207.8879031726656 61.27101234314142 0  219.5945508510063 49.26517889117938 0  204.4640092132492 79.16637174968085 0  219.054165325738 63.24726086273807 0  245.5364828646638 168.1932520030346 0  204.1722248369768 62.21708558088665 0  205.6821920907016 58.50393459316535 0  209.6155639374877 57.86856426712311 0  196.5553895895766 69.81481204083099 0  235.6123608690412 152.8874163252039 0  233.2157615582107 155.2532908181879 0  240.6837858645011 122.4172544901715 0  210.8141135626509 127.8682271622992 0  245.3812170314571 182.2522052029404 0  206.9456715292139 54.99559933887414 0  210.5075513436263 54.0697256538542 0  207.9169085133073 103.1765167571325 0  223.2431750051092 164.070583057325 0  225.7483443677002 162.1151723759482 0  206.0378951001477 96.94148998994152 0  242.6796154699829 175.6597339900036 0  214.6838055972238 146.7252062992904 0  211.9990465678071 115.5576487680909 0  221.4613603554043 78.78973924681317 0  218.3291154698718 77.0769598533563 0  200.3358005877804 107.1120377748188 0  247.4072167499741 149.4171847419639 0  211.6397508657857 39.55684201930068 0  226.8243927196049 72.17619845696734 0  215.354291780634 85.55308818793476 0  236.5600255652378 131.6759521500912 0  226.0129792461303 165.2837912620818 0  218.060680211082 117.0067370946569 0  220.2726382852709 114.6051380114157 0  212.8793579154693 118.3711453694285 0  215.022609143906 99.35520341734289 0  203.0459334752391 85.71272568041367 0  202.8915272398735 55.67723839797077 0  220.5465456567309 139.1747891305704 0  239.6921265383864 169.3260213165692 0  236.6712881821608 168.5826958099534 0  218.0125893802946 141.5012621699478 0  201.3193403438535 110.3399099823547 0  203.3799271438462 107.9393487975089 0  248.1978655115356 165.7601936670729 0  248.8804221900089 169.2105116441819 0  237.1867529048816 147.1869371163321 0  236.7369473929319 176.2832209442509 0  247.3010859001464 162.3677476585113 0  204.3727171343656 110.8209535355564 0  235.7766571132668 128.3537547116865 0  217.8932394506906 150
[...]
<PointData  Vectors="f_12"> 
<DataArray  type="Float64"  Name="f_12"  NumberOfComponents="3" format="ascii">4.8293523940457228e-01 1.7824515661854595e-01 9.2682786806902784e-02  4.8452507234913927e-01 1.9095988041909787e-01 9.0764539865094626e-02  4.8198954495708385e-01 1.5963680674395997e-01 9.9825525327424294e-02  4.8222088517245865e-01 1.5845235042528777e-01 1.0128863241828155e-01  4.8371272219058237e-01 1.2647162918992991e-01 1.2443292983797571e-01  4.8659486000652474e-01 1.1172107690550791e-01 1.4323524567266857e-01  4.8943486816374626e-01 9.9850517923542867e-02 1.6056612185747615e-01  4.8524141425403117e-01 1.4057297519637454e-01 1.2221718121525381e-01  4.9013590683225888e-01 2.0424901701093506e-01 1.0239445946563708e-01  5.0259170478360560e-01 2.6964273142978962e-01 1.0496468808116310e-01  5.4601634877844363e-01 4.6869288697778005e-01 1.1065795525690765e-01  5.4826059545856098e-01 4.9140305242518506e-01 9.9432075205980380e-02  6.1176096321576301e-01 6.3966835181611981e-01 1.6653453491210773e-01  7.3790565670255592e-01 6.8433315085630941e-01 4.2982870333173467e-01  7.2853248956094152e-01 5.6967501555990685e-01 5.7662280126883547e-01  6.5056732098090109e-01 3.9245826132987194e-01 5.8562430593408565e-01  6.1040310035747236e-01 3.2264092617925755e-01 5.0977851711322764e-01  5.9210554334235543e-01 1.9730946842954536e-01 5.4820670662335980e-01  7.6797689215559106e-01 6.7652504426770343e-01 4.8671847920003530e-01  7.5873337513908201e-01 7.1525142592070912e-01 4.1436335624983123e-01  7.6260755175926109e-01 7.0967909227448478e-01 4.2837359509133771e-01  7.6317117241934429e-01 7.4682155808597095e-01 3.7220082779387281e-01  7.0185569965579553e-01 7.7858862545098639e-01 2.1992905520320688e-01  6.4840635158927551e-01 7.4558536890580585e-01 1.4264074224130646e-01  6.5642205140501630e-01 7.5569222355118570e-01 1.4989593334766468e-01  6.4845121134691341e-01 7.4575931431025799e-01 1.4256847001779752e-01  6.4649246575069097e-01 7.4306983108880975e-01 1.4090553604481235e-01  6.4445061627860234e-01 7.4042428539769378e-01 1.3895649552445463e-01  6.4446778270687988e-01 7.4042944559759738e-01 1.3899000647373702e-01  6.4449532212799210e-01 7.4030397240548673e-01 1.3918959652997559e-01  6.3717787266757353e-01 7.2948549149037878e-01 1.3326496742052435e-01  6.2385321977489971e-01 7.0750929352151248e-01 1.2281449190657998e-01  6.1663731094407448e-01 6.9472023061291888e-01 1.1703561170568744e-01  6.1427932866945278e-01 6.9039736442131638e-01 1.1508009978178353e-01  6.1377638082770691e-01 6.8948900385259959e-01 1.1464114712639802e-01  6.1965273711509095e-01 7.0029656910343563e-01 1.1929313991584391e-01  6.2574988331192216e-01 7.1100686166261196e-01 1.2406210702052319e-01  6.4091801082880229e-01 7.3638256593899076e-01 1.3478830788898849e-01  6.4574273744239274e-01 7.4333223656784742e-01 1.3879071344494620e-01  6.4814687476730215e-01 7.4670424624080156e-01 1.4077845822375509e-01  6.7047906107584243e-01 7.6808481636694381e-01 1.6801449419025699e-01  6.7307932795776926e-01 7.6757575921175281e-01 1.7451245597773241e-01  6.5776520366244806e-01 7.5611757260879509e-01 1.5275442514625989e-01  6.6362788504028991e-01 7.6028243076962709e-01 1.6148337009181091e-01  7.0272736273430547e-01 7.4871816853980377e-01 2.6567546508774958e-01  7.2138702568691715e-01 4.8938268501175369e-01 6.6686521162674617e-01  5.9229491967848813e-01 1.4094996103637425e-01 5.9271719379201260e-01  5.7281722679883385e-01 1.4830968059704158e-01 4.9581958420542632e-01  5.1887941359679768e-01 1.5989179904909320e-01 2.4977386425835887e-01  4.9468435519000908e-01 1.5930811906288903e-01 1.4987141341500371e-01  4.9354042297566258e-01 1.8507037971238893e-01 1.2866767042353261e-01  4.9087172256879841e-01 1.9548377789512703e-01 1.1184116707781531e-01  4.9085753761027162e-01 2.0184011535524962e-01 1.0765372248820830e-01  4.8910452696191786e-01 1.9763263236348630e-01 1.0386533438651786e-01  4.8987018863515386e-01 2.0338157018786651e-01 1.0308633071535164e-01  4.9407618517208218e-01 2.2349911679468401e-01 1.0575822670797659e-01  5.1467108866248490e-01 2.5713104430363976e-01 1.6239522239913204e-01  5.1626142844868750e-01 1.4163607829084579e-01 2.5195009047683187e-01  5.1477410396201173e-01 1.2237829949963676e-01 2.5812188532975633e-01  5.6776808492503439e-01 1.1784891969590366e-01 4.9649131614847292e-01  7.0342646006892573e-01 3.4853689208824484e-01 7.8639396454287636e-01  7.1731330970494667e-01 4.1152190393534188e-01 7.4826272464479671e-01  7.1341591344049193e-01 4.3663754200197613e-01 7.0873370307781636e-01  7.0026526366415720e-01 5.2838200290644255e-01 5.6220596171658199e-01  6.6930833249826227e-01 6.1375431717013229e-01 3.7167482289230031e-01  5.4983980319467662e-01 4.6332806739004528e-01 1.2773532451652134e-01  5.0912741058548516e-01 3.2912082208741655e-01 8.7283295744215950e-02  5.0088174123373819e-01 2.9734132566222676e-01 8.0552227436688578e-02  4.9734735626323917e-01 2.8271317359607034e-01 7.8123040875565194e-02  4.9370048501128466e-01 2.6649523460451113e-01 7.6184956125560213e-02  4.9325873937128523e-01 2.6483774434164337e-01 7.5774711445200163e-02  4.9270941854865119e-01 2.6065173563978883e-01 7.6472390329741263e-02  4.9569784069303235e-01 2.7575167035511527e-01 7.7044554077715516e-02  4.9605753529371516e-01 2.7790714487896390e-01 7.6887922113483262e-02  4.9361478124011965e-01 2.6511755760672984e-01 7.6729306494775565e-02  4.9257685715703176e-01 2.4868632119928782e-01 8.3488409940259925e-02  4.8816599015205508e-01 2.1607615474509667e-01 8.8352026853206825e-02  4.8662444313358116e-01 2.0487568190788069e-01 8.9802220719497269e-02  4.8358993002489142e-01 1.8314154358162374e-01 9.2119729760027941e-02  4.8323771012403383e-01 1.8060730932649136e-01 9.2364135267527306e-02  4.8312502661309931e-01 1.7968709451350984e-01 9.2506553936267527e-02  4.8319505015717845e-01 1.8025046528559160e-01 9.2423243286968909e-02  4.8337797031438168e-01 1.8172634771791438e-01 9.2200939005370963e-02  4.8373643531862631e-01 1.8461281726415690e-01 9.1765552051220042e-02  4.8420955713464631e-01 1.8866732616917681e-01 9.1042696179379420e-02  4.8472034535639097e-01 1.9307253675096145e-01 9.0225352455043220e-02  4.8367419590061894e-01 1.8087968158684870e-01 9.3624481414211952e-02  4.8257240929221012e-01 1.6747287727443280e-01 9.7440782148545180e-02  4.8241294102395399e-01 1.4900871763710580e-01 1.0724904660404573e-01  4.8288244289034893e-01 1.3732119483515004e-01 1.1542782916685414e-01  4.8482077934740653e-01 1.1996644796284983e-01 1.3208168130081899e-01  4.8864196813768546e-01 1.0308963041176697e-01 1.5573970095605039e-01  4.8809037761953405e-01 1.0642065284618639e-01 1.5179615723383916e-01  4.8661900359202848e-01 1.7576080420401172e-01 1.0693811940292344e-01  5.2708544979505734e-01 3.8632477300246271e-01 1.0947760042748007e-01  5.7222138383344090e-01 5.5636663322142277e-01 1.2262280833490216e-01  6.5184315241560087e-01 6.9113230660275082e-01 2.2307457495592919e-01  6.9002462301366996e-01 7.1408266342160098e-01 2.8906429661928046e-01  7.1937607484805377e-01 7.1033225713372261e-01 3.5698482320262648e-01  7.4254415039097665e-01 6.4325331340639247e-01 4.9852167728043240e-01  6.9327133027870036e-01 4.7622465913352596e-01 6.1797251704447143e-01  5.7529642590495844e-01 2.3311443979918489e-01 4.4843257338005088e-01  6.8511084052888427e-01 3.2138436325324188e-01 7.6722135767235722e-01  7.5507728255209638e-01 5.7608979354993717e-01 6.1569839570933116e-01  7.6787519887452726e-01 6.8809457091452353e-01 4.6931253925657374e-01  7.6286357087311962e-01 7.2451590360969753e-01 4.0602225074579207e-01  7.3677127191895642e-01 7.5688385631475974e-01 3.1653176756161538e-01  6.7574641610439801e-01 7.7288796679226235e-01 1.7272093421556903e-01  6.6281707721098937e-01 7.6268260069096006e-01 1.5632387220721841e-01  6.3977858345335847e-01 7.3341301826003269e-01 1.3535464197164720e-01  6.3279949746958519e-01 7.2250131819452057e-01 1.2986544087377871e-01  6.1595361967113227e-01 6.9355117269434630e-01 1.1636933438218793e-01  6.3407402072669794e-01 7.2514878174024799e-01 1.3019150100991911e-01  6.3799444906811786e-01 7.3169843567327353e-01 1.3277588203825519e-01  6.5127864655300893e-01 7.5012792190134259e-01 1.4436792022912284e-01  6.7884631667134454e-01 7.6804019619146902e-01 1.8690582718635024e-01  7.2334606508716714e-01 6.7695173766707528e-01 4.1225603468842725e-01  6.4764533082579734e-01 2.1394350149338628e-01 7.5093501243998151e-01  5.0071586386895062e-01 1.6013087664139836e-01 1.7374129676296055e-01  4.9332072060642451e-01 1.6799899662679435e-01 1.3888643307761089e-01  4.9234994780980990e-01 1.9398721740615990e-01 1.1834553526949691e-01  4.9223349619179591e-01 2.1545887234460148e-01 1.0413085152683837e-01  5.0060448718348038e-01 2.4175197492937966e-01 1.1792350247442353e-01  5.1560732971392287e-01 2.0024968460593551e-01 2.0829085357965557e-01  5.2851847160467036e-01 1.1340843864047981e-01 3.2389703748182364e-01  6.4258940210741433e-01 1.9240197680995616e-01 7.4667561756242040e-01  6.1815022380607054e-01 5.9765176871214709e-01 2.3300957600796221e-01  4.9277384187353429e-01 2.6134325929620722e-01 7.6272195508135812e-02  4.9584598911339883e-01 2.7522474966301247e-01 7.7898097270086022e-02  5.2489745996839410e-01 3.6736954531535793e-01 1.1572057264403171e-01  7.2893617381924258e-01 6.3285564837253461e-01 4.8655980944535060e-01  6.7789723250620171e-01 6.8829483946348280e-01 2.9524849542014042e-01  4.8293053654252649e-01 1.4794669603560914e-01 1.0967617916752109e-01  5.1750300716619591e-01 1.7215066166899640e-01 2.3652862066361266e-01  4.9676534359943658e-01 2.0502303322019705e-01 1.2784385165296577e-01  5.9814809904681687e-01 5.6864190756079691e-01 1.9689958501349014e-01  6.1664659219219609e-01 1.5941698499985116e-01 6.7377095076843907e-01  7.2178156399510263e-01 4.8471435623382991e-01 6.6985128530671634e-01  5.4158837075073507e-01 1.5360927575272024e-01 3.5403279425860984e-01  5.1899775549353788e-01 1.7340971567197874e-01 2.4195732604276091e-01  7.3852651668302405e-01 6.3053284015394540e-01 5.1005767279960057e-01  7.3229805264748993e-01 6.1480604100269187e-01 5.1879995097589815e-01  7.1966379449393958e-01 4.6854629007517734e-01 6.8495257272588317e-01  6.8350212085476603e-01 7.7620076006348182e-01 1.8535737711348899e-01  7.0146671978603481e-01 4.9886397091182261e-01 6.0769020421698694e-01  5.3187255253334176e-01 1.7025913093637071e-01 3.0112679394090003e-01  7.4961268402228254e-01 7.1405800509253459e-01 4.0295192055972040e-01  5.2420392076450817e-01 2.1066190514270272e-01 2.3787760209209927e-01  7.3436654433065374e-01 6.0216274445611839e-01 5.4111748686277972e-01  7.1423718267042557e-01 4.3454305300589613e-01 7.1569397271244739e-01  7.2542135724093038e-01 7.0342523351340158e-01 3.7725875702547174e-01  5.0673536954796872e-01 2.8665358352775056e-01 1.0827713040745839e-01  5.3595252472727906e-01 3.9942099816311966e-01 1.3068119984430618e-01  5.1500116734207979e-01 3.2068226341662548e-01 1.1416660362940208e-01  5.5059460787178538e-01 4.4358900189015027e-01 1.4736390859314577e-01  5.2465264190215366e-01 3.6115958378692770e-01 1.1927212225808129e-01  5.8026804028644252e-01 5.1739187355362970e-01 1.8700483609837351e-01  5.9898025530172350e-01 5.5096302671587905e-01 2.1878342883176005e-01  6.3164112577544174e-01 5.8370573627852707e-01 2.9288870419766755e-01  6.4789853057510405e-01 5.8914977565723359e-01 3.3814178132413303e-01  6.7347254766223341e-01 5.6424781185174255e-01 4.4676242570083313e-01  6.3284685092979243e-01 7.2290893676171675e-01 1.2952841361383671e-01  5.3231083008463009e-01 2.0050104106431452e-01 2.8158282565388693e-01  6.5786721623704414e-01 5.8354160874456973e-01 3.7607475217772307e-01  6.8717740797986726e-01 5.1303907311254593e-01 5.5117078653461593e-01  4.8521036831206210e-01 1.2047347568585141e-01 1.3324165067316368e-01  6.1345354904070382e-01 5.7374942250594285e-01 2.4363675982518831e-01  6.5875097710681241e-01 5.8999560246611482e-01 3.7021064231322931e-01  7.2924395753375948e-01 6.9611268049312180e-01 3.9513552449922384e-01  7.0940934503212583e-01 7.4994131297421107e-01 2.7714925931077633e-01  5.3924162923077279e-01 2.6383636962149815e-01 2.6095737558236182e-01  4.8473705886938706e-01 1.8979029013054116e-01 9.2125279104077307e-02  6.2184745102843075e-01 5.8646447606581165e-01 2.5716906030139919e-01  6.6451496269141352e-01 5.9117009082950400e-01 3.8571417526832569e-01  6.8817101739578113e-01 5.3593172130107214e-01 5.2392213593283699e-01  5.6695115963270148e-01 2.0441611579404695e-01 4.3536505934912939e-01  5.9417867237424105e-01 1.9038235061657746e-01 5.6109807653245247e-01  6.7579628563732430e-01 5.6278883698569371e-01 4.5559013917659441e-01  6.8999987253098871e-01 4.5514969538391348e-01 6.3108421649746904e-01  6.8529922331892335e-01 3.8544315580865951e-01 6.9896760742166819e-01  6.6951284118445475e-01 3.1593838646347844e-01 7.2637075682380892e-01  5.3236590465697187e-01 2.7202372487395543e-01 2.2407929855773920e-01  5.5988202023645350e-01 3.3639551683919960e-01 2.8504520339434603e-01  5.5176382205384111e-01 3.4084383708215893e-01 2.4624608674428577e-01  6.4110153714057894e-01 7.3531547727088786e-01 1.3649245317208131e-01  6.9163409579608937e-01 5.3280124986151312e-01 5.3696100411394421e-01  5.2293238319851776e-01 3.7881776943237133e-01 9.9408561287516475e-02  7.1390358609721172e-01 7.4924662965841049e-01 2.8698448748840449e-01  6.9037666599800740e-01 7.6800878254371863e-01 2.1166507643001881e-01  7.3570984864019517e-01 6.7476556705814950e-01 4.3915363482939335e-01  5.6873466940084305e-01 1.8108950179470443e-01 4.6002746242793474e-01  5.4738606443225168e-01 1.6122506916883111e-01 3.7722607278723957e-01  5.0007846861054273e-01 2.5765195150953624e-01 1.0381633380433969e-01  5.0560151072979342e-01 2.8996261570332404e-01 1.0188496789561327e-01  4.9109095327654612e-01 2.1615056970480787e-01 9.8441041761635609e-02  4.9413737446427980e-01 2.4226674219626651e-01 9.2843307057499311e-02  4.8694888541729192e-01 1.9590246323895269e-01 9.6193676959475921e-02  4.8883243951674665e-01 2.1855541439381110e-01 8.9166071475788464e-02  4.9674701335614913e-01 2.6373788347843863e-01 8.8258694974967300e-02  4.9078989227638359e-01 2.3788943217958108e-01 8.4105384576596054e-02  4.9851817618139527e-01 2.7867314458868547e-01 8.4730126843404280e-02  4.9240962498529905e-01 2.5238597917218247e-01 8.0662435293128054e-02  4.8933752050095414e-01 2.3117134339251472e-01 8.3249437114038177e-02  4.9113243888658425e-01 2.4619197768053103e-01 8.0151028109463646e-02  4.8986489329142829e-01 2.3390602174972402e-01 8.3354045101492663e-02  4.9181047916748272e-01 2.4918014368572416e-01 8.0578468324205260e-02  4.9352302125856107e-01 2.6193930079755467e-01 7.8470030873505542e-02  5.6473146910734739e-01 3.2177119337934584e-01 3.1985827423885310e-01  5.8827984665398148e-01 3.9680971099266393e-01 3.4333757116954028e-01  5.7528481320530700e-01 3.9643242973128634e-01 2.9082937625722599e-01  6.1598642919627522e-01 4.2945288888442873e-01 4.1708306985763233e-01  5.9575129660308490e-01 4.2390620116387506e-01 3.4469890225607547e-01  6.3291062377074214e-01 4.3001003462677878e-01 4.7860456514251365e-01  6.0634030949408013e-01 4.2028782306565121e-01 3.9010227178028872e-01  6.3673236747833606e-01 4.0182770983860183e-01 5.2368611242758867e-01  6.0426069395008297e-01 3.8886476184627650e-01 4.1540948280707157e-01  6.2792498514300921e-01 3.5274001806046917e-01 5.4421543522030980e-01  5.7572103205140623e-01 4.0258838755557808e-01 2.8666977112097614e-01  5.9096576847070392e-01 3.3957132883023367e-01 4.1205907575040057e-01  6.0891886062645151e-01 2.9564728434599330e-01 5.2790264897745920e-01  6.0978641128939692e-01 1.9806029350577736e-01 6.1740482204832059e-01  4.9065011460388103e-01 2.3768337811308163e-01 8.3712571740821001e-02  6.8787519770184580e-01 4.1932399636459328e-01 6.6812075498062973e-01  6.5674161079850235e-01 2.8327134033419893e-01 7.1769576390202927e-01  6.2518645920410310e-01 2.0666925414630252e-01 6.7286149146807017e-01  6.0802134902956884e-01 1.9271320693332039e-01 6.1721758554463957e-01  6.5271554233229601e-01 2.8138283909216077e-01 7.0599359139029938e-01  5.8078913437116808e-01 1.5552708729450054e-01 5.3069973699858231e-01  4.9395298099681423e-01 2.2002710008497858e-01 1.0734428396407511e-01  5.7149853207445178e-01 1.6768030202086223e-01 4.8167587241900955e-01  6.2574104849022660e-01 5.9353397552870035e-01 2.6165036467256947e-01  6.9635601639664690e-01 4.3844211247313519e-01 6.6689833025236245e-01  6.9958615600663343e-01 4.3954692716042970e-01 6.7349913575073239e-01  4.8558522971217416e-01 1.8955256709235679e-01 9.5185000450620311e-02  5.7207720310478904e-01 2.8262012214266041e-01 3.8681811768729535e-01  4.8991907893906694e-01 2.2899139523805348e-01 8.6540397123425011e-02  7.0549728535393530e-01 7.4999414619569771e-01 2.6916948588204936e-01  4.9241637069215771e-01 2.4781360707991024e-01 8.3487133686290960e-02  6.9318092493923433e-01 5.3884877159867095e-01 5.3290487423650512e-01  6.0544867749081255e-01 1.6862763976479875e-01 6.2462059361097744e-01  5.6398026572489024e-01 1.3387097924191341e-01 4.7130782728461079e-01  4.9474143070719961e-01 2.7008377456622262e-01 7.7404790948072705e-02  4.8837085891603682e-01 2.1838768201139461e-01 8.7641832523150304e-02  5.8207412150951132e-01 1.7581529691824774e-01 5.2036364407537583e-01  6.7157295537507800e-01 4.0307760119117381e-01 6.3897620143084599e-01  6.9412155949104160e-01 7.6965005567919365e-01 2.1722517238354008e-01  6.7364746044816948e-01 7.6762593727724671e-01 1.7515568641840004e-01  6.5410546051690532e-01 7.5277414840943135e-01 1.4784918960568322e-01  6.8449313217445884e-01 3.2391377004131983e-01 7.5891375180090759e-01  7.0651338696851984e-01 7.7395584808316853e-01 2.3607943115169133e-01  4.8861813778032009e-01 2.1934593687391676e-01 8.7916462438730761e-02  6.6943321987439897e-01 7.6438068862193087e-01 1.6983833892948175e-01  6.5822523247135600e-01 7.5687250016266450e-01 1.5290472525648338e-01  6.6316766286569018e-01 7.6178228959296879e-01 1.5841504195194195e-01  6.9184595116599257e-01 7.6008799268150795e-01 2.2627319655457315e-01  5.1289844628787107e-01 3.3462252952175742e-01 9.6634200817367968e-02  5.1362828204974476e-01 3.4257795175701533e-01 9.3541732303176625e-02  6.0669686578780013e-01 6.1674367546736730e-01 1.7478227965202150e-01  5.2220691235606098e-01 1.3242322141196833e-01 2.8419055075799554e-01  4.8495252085222479e-01 1.9424965437632535e-01 9.0328288256161612e-02  6.5147146260384070e-01 7.4962092917960554e-01 1.4538096749884355e-01  6.5446503758058239e-01 7.5307739105311278e-01 1.4840706497267747e-01  5.5742459445245052e-01 3.7724506667533919e-01 2.3577786148026278e-01  5.0333694531993423e-01 3.0724005052320114e-01 8.2314813209286339e-02  5.0773927208839509e-01 3.2502053498039557e-01 8.5345298416536722e-02  5.2251746750756445e-01 2.6285614405871166e-01 1.8959807759092762e-01  4.9028790711891601e-01 2.3216913242782694e-01 8.5863468937892276e-02  7.1023983945102842e-01 4.4357052779847245e-01 6.9310130065058440e-01  5.6071796670199425e-01 3.2879866064637764e-01 2.9567165859474620e-01  6.5430748273200479e-01 2.6248430938022854e-01 7.2379605062693786e-01  6.7649293351110373e-01 3.0849557507464248e-01 7.4998050203416944e-01  4.9601675112426841e-01 2.1785895580586939e-01 1.1636564578697446e-01  4.8521352707591370e-01 1.6806010175431724e-01 1.0639799711460622e-01  6.3228900682843547e-01 7.2165010584949807e-01 1.2950763234833584e-01  7.5769206560268054e-01 6.4508688786088653e-01 5.2173728998300140e-01  5.5401953362293532e-01 1.8512854081541127e-01 3.9161523502101708e-01  6.3392074714357327e-01 5.9305769665001873e-01 2.8941505456270045e-01  4.9730491721590653e-01 2.8271094736324714e-01 7.8008463047365834e-02  5.8866618749102884e-01 2.4175748713726725e-01 4.9463919953044883e-01  6.3523898558092085e-01 2.9003077859184373e-01 6.3393560318861919e-01  5.4621255497989585e-01 2.7491717171472263e-01 2.8165659028269102e-01  6.2647972813050290e-01 4.2463012266764827e-01 4.6134817151879459e-01  5.7848401764531876e-01 1.5427836914166468e-01 5.1710273282054664e-01  6.4739828377000419e-01 7.4482170254276503e-01 1.4113438688356386e-01  6.8312046197