<?xml version="1.0"?>
<VTKFile type="UnstructuredGrid"  version="0.1"  >
<UnstructuredGrid>
<Piece  NumberOfPoints="600" NumberOfCells="1069">
<Points>
<DataArray  type="Float64"  NumberOfComponents="3"  format="ascii">239.8 188 0  250.2 180 0  258.2 172.4 0  257 169.4 0  259.9 157.4 0  258.7 150.3 0  261 143.5 0  251.7 144.4 0  250 138.7 0  247 138.1 0  245.2 130.8 0  247.3 126.4 0  242.7 118.6 0  231.2 107.7 0  226 102.4 0  226.5 93.90000000000001 0  224.5 91.19999999999999 0  224.5 84.09999999999999 0  234.5 73.80000000000001 0  228.4 68.90000000000001 0  230 70 0  233.4 68 0  222.7 61.5 0  220.6 45.5 0  223.4 49.40000000000001 0  224 47 0  221.8 43.09999999999999 0  221 38.40000000000001 0  219.5 38.5 0  219.4 41.69999999999999 0  217.1 36.90000000000001 0  209.7 36 0  209.5 31.69999999999999 0  205.1 29.90000000000001 0  201.5 30.40000000000001 0  199.2 38.69999999999999 0  201.8 41.40000000000001 0  194.8 53.80000000000001 0  196.1 57.69999999999999 0  193 59 0  191.4 66.09999999999999 0  193.5 66.5 0  194.1 64.40000000000001 0  195.6 64.69999999999999 0  195.4 72.40000000000001 0  199.5 77.30000000000001 0  197.7 86.90000000000001 0  200.6 87.5 0  201.5 91 0  198 94.80000000000001 0  198.6 100 0  197.3 105.4 0  198 109.5 0  197 112.7 0  198.3 116.1 0  201.3 122 0  207.2 121 0  208.1 126.7 0  205.6 127.9 0  209.1 134.9 0  210.9 144.4 0  210.1 147.9 0  213 148.4 0  215.4 149.3 0  215.1 152.8 0  219.9 159.7 0  220.3 163.2 0  218.7 164.9 0  219.9 166.7 0  221.9 169.7 0  220 170.3 0  224.9 174.7 0  229.8 177.4 0  229.7 181 0  228 172.9 0  239 178 0  240.4 180 0  239 181.5 0  241.2 185.9 0  242.95 187.99 0  241.113414658978 187.995830429654 0  242.142964269982 187.9925620181905 0  243.6619187087475 187.2054164851183 0  244.631513060971 186.1368566403919 0  245.9520480703466 184.6815359886801 0  247.7505449816197 182.6994683581873 0  252.8666666668011 177.466666666539 0  255.5333333336077 174.9333333330727 0  257.9666666666661 165.4000000000025 0  258.9333333333339 161.3999999999974 0  259.3000000000018 153.8500000000108 0  259.849999999995 146.9000000000149 0  256.350000000011 143.9499999999989 0  250.8500000000015 141.5500000000051 0  246.1000000000042 134.450000000017 0  245.0000000000049 122.5000000000082 0  239.8250000000041 115.875000000004 0  236.9500000000083 113.1500000000079 0  234.0750000000041 110.4250000000039 0  228.6000000000041 105.0500000000042 0  226.25 98.15000000000002 0  224.5 87.65000000001388 0  227.8333333333301 80.66666666667 0  231.1666666666644 77.23333333333571 0  232.2500000000014 71.90000000000116 0  230.8999999999995 68.45000000000009 0  225.5500000000108 65.20000000001409 0  222.9333333333329 57.46666666667507 0  223.1666666666663 53.43333333333877 0  218.2500000000016 39.30000000000339 0  213.4000000000277 36.45000000000337 0  200.3500000000025 34.54999999999097 0  199.4666666666726 45.53333333332282 0  197.1333333333385 49.66666666665756 0  193.5499999999978 61.6999999999891 0  193.3999999999962 69.24999999999406 0  197.4499999999954 74.84999999999454 0  198.6000000000007 82.09999999999631 0  199.7500000000014 92.8999999999985 0  198.2999999999997 97.39999999999726 0  197.950000000001 102.699999999996 0  199.7999999999944 119.049999999989 0  204.2499999999946 121.5000000000009 0  207.6499999999987 123.8499999999919 0  207.35 131.4 0  209.9999999999998 139.649999999999 0  217.4999999999938 156.249999999991 0  223.4 172.2 0  234.349999999995 179.5000000000016 0  243.6879031604435 137.0140197666175 0  200.5383884465266 74.3488835611292 0  236.0631303447202 117.0934887033495 0  255.2860706566257 162.4962097513293 0  210.288597171716 124.9641969758756 0  200.5494091764226 101.6938959209836 0  221.0463142825589 155.4583368622661 0  213.2458552033902 137.0182369603261 0  202.5715495252679 76.72215432732189 0  203.3954031521662 88.63888283314805 0  204.2685850489914 91.3771816532193 0  227.6002395557545 108.6285485308707 0  203.628067965887 73.80056467640915 0  205.5882193517793 76.19298591547215 0  219.3893731065793 59.36381842571261 0  222.6962970705901 100.2685345181304 0  206.2147206748961 89.23684943534887 0  224.5717795045128 68.90112930058935 0  207.1505150846513 91.97409496002633 0  206.6973804802006 73.20614062920998 0  209.0198262461606 75.84435446174592 0  204.6828826698789 70.78585325419728 0  244.5505030757118 140.1958289722003 0  241.2713205316759 139.2760911012237 0  242.0887623359319 142.523888210035 0  238.8201809392432 141.5810446831215 0  239.6254755922404 144.8663288044098 0  238.0282380951174 138.3361101328854 0  235.5650201404635 140.6403522599634 0  234.7868703265066 137.3765638391416 0  232.3671992655526 139.7040340002533 0  231.5735594060041 136.4371341666237 0  203.6025996895933 45.13245413868078 0  209.0094500142995 89.77916893533093 0  234.0048963149566 134.0619286436701 0  230.7388584519252 133.0932019642386 0  256.0202376970822 152.4353991158102 0  233.1239077827668 142.9168616681826 0  229.9476468053365 142.0041066209365 0  207.8316386186595 70.1760146256688 0  205.8080150778045 67.77328389450008 0  210.1255397865818 92.58553759086743 0  249.9530000513888 175.7831884132348 0  230.7520925362455 145.2114145624654 0  227.5614746466729 144.2879078440436 0  226.855634298717 141.1029513419209 0  221.109901317114 86.07738557802102 0  221.3898452401857 82.41394785245797 0  233.1906280944642 130.7538222264552 0  229.849944657733 129.8156996791429 0  227.4514186000422 132.1240250470279 0  226.5693510741891 128.7503487535618 0  208.0732626511005 94.86195720558288 0  211.0579654481564 95.54875779444082 0  209.0041892644107 97.86214677695602 0  216.7276956906574 41.503774594868 0  224.4517166451922 143.3327513982825 0  222.7890579510523 161.0597281586643 0  209.0698801997012 67.10609773523754 0  206.9141710660066 64.58868367949086 0  211.5265666272545 70.15591236789595 0  218.2872405225432 83.97244872861398 0  207.7311279855657 86.71297189445447 0  242.9081583239214 145.8040728889821 0  240.4621480942806 148.1601866910276 0  243.7562457682554 149.0907552716282 0  241.3145175595932 151.4726760652338 0  244.57940289053 152.3666461928266 0  242.1615185950008 154.7794567484269 0  238.8718789959482 153.837018554675 0  239.7122407256576 157.1523621063041 0  236.4289375384117 156.2070529629317 0  237.2412111497984 159.5248795948406 0  240.5638486223294 160.4901132255754 0  238.1023772270576 162.8725976094984 0  241.406699334305 163.8359650846702 0  238.9630278156374 166.2175426435888 0  234.7361516891476 161.8928266488476 0  213.124654294145 93.56046727196781 0  212.0434836741439 98.5447165103807 0  209.9504013355788 100.9044854564887 0  213.0958854424699 101.5871381629478 0  210.9302285957408 103.9580876602797 0  214.0010858928389 104.7096094485587 0  211.9141605791952 107.0615795921763 0  214.9890206858068 107.8102538193681 0  212.9269247290344 110.1901972673309 0  216.0786784436673 110.8721476340726 0  209.7617142319936 109.4041944495815 0  213.932211035267 113.2627867337288 0  217.0813395790477 113.941453344218 0  218.441750941724 80.63655841437071 0  242.2412500877879 167.1781012200828 0  229.2280100589433 126.5393356137107 0  225.9203624138538 125.4446005931909 0  223.3571983269889 127.7265579015054 0  222.6136526124249 124.535547281476 0  225.3056527306165 122.1016033222114 0  220.3254947810712 126.7409252226328 0  201.0777098578984 116.3274181811247 0  219.7857338015156 123.3740225787907 0  228.3312248450329 147.5116593523427 0  223.7608055035202 140.2236832285434 0  221.3299816979287 142.3937311365609 0  245.4512147769152 155.7068319139237 0  214.9140854911084 116.3016229600955 0  241.4261562479406 177.9745543740275 0  202.8157779574545 68.56000166221941 0  240.0703975438099 175.788326095019 0  222.1092806876692 145.4935485219417 0  220.9446699547174 129.9892194059113 0  217.7131509102484 129.0121441451285 0  231.966766611991 173.6290727753235 0  244.7035101352062 164.8150950666352 0  215.4589412711449 82.35047797613059 0  218.5358717759109 108.3057574313637 0  210.0910095413371 63.89870618133642 0  207.8879031726656 61.27101234314142 0  219.5945508510063 49.26517889117938 0  204.4640092132492 79.16637174968085 0  219.054165325738 63.24726086273807 0  245.5364828646638 168.1932520030346 0  204.1722248369768 62.21708558088665 0  205.6821920907016 58.50393459316535 0  209.6155639374877 57.86856426712311 0  196.5553895895766 69.81481204083099 0  235.6123608690412 152.8874163252039 0  233.2157615582107 155.2532908181879 0  240.6837858645011 122.4172544901715 0  210.8141135626509 127.8682271622992 0  245.3812170314571 182.2522052029404 0  206.9456715292139 54.99559933887414 0  210.5075513436263 54.0697256538542 0  207.9169085133073 103.1765167571325 0  223.2431750051092 164.070583057325 0  225.7483443677002 162.1151723759482 0  206.0378951001477 96.94148998994152 0  242.6796154699829 175.6597339900036 0  214.6838055972238 146.7252062992904 0  211.9990465678071 115.5576487680909 0  221.4613603554043 78.78973924681317 0  218.3291154698718 77.0769598533563 0  200.3358005877804 107.1120377748188 0  247.4072167499741 149.4171847419639 0  211.6397508657857 39.55684201930068 0  226.8243927196049 72.17619845696734 0  215.354291780634 85.55308818793476 0  236.5600255652378 131.6759521500912 0  226.0129792461303 165.2837912620818 0  218.060680211082 117.0067370946569 0  220.2726382852709 114.6051380114157 0  212.8793579154693 118.3711453694285 0  215.022609143906 99.35520341734289 0  203.0459334752391 85.71272568041367 0  202.8915272398735 55.67723839797077 0  220.5465456567309 139.1747891305704 0  239.6921265383864 169.3260213165692 0  236.6712881821608 168.5826958099534 0  218.0125893802946 141.5012621699478 0  201.3193403438535 110.3399099823547 0  203.3799271438462 107.9393487975089 0  248.1978655115356 165.7601936670729 0  248.8804221900089 169.2105116441819 0  237.1867529048816 147.1869371163321 0  236.7369473929319 176.2832209442509 0  247.3010859001464 162.3677476585113 0  204.3727171343656 110.8209535355564 0  235.7766571132668 128.3537547116865 0  217.8932394506906 150
[...]
<PointData  Vectors="f_12"> 
<DataArray  type="Float64"  Name="f_12"  NumberOfComponents="3" format="ascii">4.8172189551069877e-01 1.5780891127166544e-01 9.9712754632509490e-02  4.8212523385309630e-01 1.7366985285310996e-01 9.2291291587471999e-02  4.8954294643482626e-01 2.2824373899634526e-01 8.5695929527957557e-02  5.0000903780765471e-01 2.7720660047484197e-01 9.0870703115426971e-02  6.1825937129192177e-01 6.3568852405532017e-01 1.9099554585626222e-01  6.9833639663230362e-01 6.6939520154854515e-01 3.7134967664587493e-01  7.2143083084417881e-01 6.9974873056607501e-01 3.7796195780128056e-01  7.0163303731752757e-01 3.9780756216364149e-01 7.2604090880731020e-01  6.9415340622941824e-01 2.7243592922504162e-01 8.2867517946354996e-01  7.1365859638209006e-01 3.0190302790424944e-01 8.4521154329337800e-01  7.7754441934689722e-01 4.7338720798717926e-01 7.7016315561656934e-01  7.8926961800099193e-01 5.2309633674793488e-01 7.2218374493294379e-01  7.9524285373986292e-01 5.5533644188822595e-01 6.8641701857577375e-01  7.7244903549083044e-01 4.4666671794138707e-01 7.9423012477785304e-01  7.2682800463425290e-01 3.1097906041384743e-01 8.6159626252206356e-01  6.6094370919830048e-01 2.0784391887094902e-01 7.8937360454725169e-01  6.5735827300465310e-01 2.3727155030960778e-01 7.5701119795555549e-01  6.4420619405867519e-01 5.0021454972415458e-01 4.3468856749529927e-01  5.0072315717715854e-01 2.9407371925100922e-01 8.2481633671073862e-02  4.9400330902050543e-01 2.5762210651902517e-01 8.2842369838490637e-02  4.9505928022259493e-01 2.6505448898318018e-01 8.1743262391400895e-02  4.8888004530507079e-01 2.3940644129359809e-01 7.6971923863167119e-02  4.8312278501976019e-01 1.8044689708980072e-01 9.1842572824233998e-02  4.8234419018727004e-01 1.4279191950619433e-01 1.1029380127459369e-01  4.8218225363462586e-01 1.5116352414319709e-01 1.0505380620135660e-01  4.8230031383332739e-01 1.4237057102110418e-01 1.1036714098217125e-01  4.8240156110957821e-01 1.4050814439007647e-01 1.1176309052370918e-01  4.8246107747705780e-01 1.3778406800281531e-01 1.1348509518747879e-01  4.8246380771056513e-01 1.3786967804555567e-01 1.1344740465809387e-01  4.8249435241757388e-01 1.3851754829140064e-01 1.1319911550323081e-01  4.8295641249870769e-01 1.3210573675033299e-01 1.1840565424407985e-01  4.8430780604105672e-01 1.2211945382131677e-01 1.2883552996804545e-01  4.8525635620395857e-01 1.1574003062545107e-01 1.3584193880446754e-01  4.8556329169547463e-01 1.1383295465512372e-01 1.3803537871462435e-01  4.8560577403780553e-01 1.1356524249246626e-01 1.3834278720413784e-01  4.8453083192033908e-01 1.2073315344458091e-01 1.3041484344264540e-01  4.8372196489627278e-01 1.2817693095965699e-01 1.2336021930332373e-01  4.8215578088664568e-01 1.5770426581938482e-01 1.0130098447926464e-01  4.8225861484092797e-01 1.6391305939969086e-01 9.8166502065966985e-02  4.8234087810305792e-01 1.6767634214781174e-01 9.6325727507982545e-02  4.8294869327538176e-01 1.8251440008623945e-01 9.0024270447569554e-02  4.8327202619151982e-01 1.8458346420541685e-01 8.9946908294236697e-02  4.8263176220926851e-01 1.7394671216730087e-01 9.3791046170055639e-02  4.8288275941211578e-01 1.7761019964498626e-01 9.2577580655928735e-02  4.8891156169668298e-01 2.1858266755106676e-01 8.9227105056429667e-02  5.3623177130850752e-01 4.1034944532508766e-01 1.2305706553145535e-01  6.5145349360864013e-01 6.5300866696163729e-01 2.7242331608817777e-01  6.6997522454337355e-01 6.3230688051529493e-01 3.4613320414969906e-01  7.2886175516400964e-01 5.7708434550753573e-01 5.5976651282337586e-01  7.6705431217623599e-01 5.8722427874623817e-01 6.1314437994667081e-01  7.8227759227194316e-01 5.9732033048712385e-01 6.1765123634052232e-01  7.9271673392062947e-01 6.1856262990155542e-01 5.9845519208662390e-01  7.9608967000720687e-01 6.2868755850734159e-01 5.8706873600048881e-01  7.9789693268351947e-01 6.3785797398209654e-01 5.7543614073005256e-01  7.9866824254310387e-01 6.4016875992144573e-01 5.7274233032753330e-01  7.9912587692206238e-01 6.3687858338914205e-01 5.7786577085830426e-01  7.9765857183558675e-01 6.1068567758788561e-01 6.1380204298462038e-01  7.9977080141347767e-01 6.2751756155073413e-01 5.9180057422180499e-01  8.0019643220714076e-01 6.3379720557971186e-01 5.8317216497574842e-01  8.0023376044233885e-01 6.3608961992881863e-01 5.7991497242264933e-01  7.9800375689850145e-01 6.2038397800212153e-01 6.0048684433161736e-01  7.9732241756729894e-01 6.1701577781077410e-01 6.0468354260249324e-01  7.9553455528153727e-01 6.0771616042869248e-01 6.1612535103380617e-01  7.8907717093869878e-01 5.8049956806356795e-01 6.4750454994559137e-01  7.7868329045033113e-01 5.5119835322119581e-01 6.7605591415819200e-01  7.2949616233179915e-01 5.4203997321777875e-01 6.0937032580356054e-01  6.8876866010888171e-01 6.1750736429986774e-01 4.1666456564626725e-01  6.7166597697556407e-01 6.4316832165244819e-01 3.3953744173902306e-01  6.5622951020066467e-01 6.4818089221131947e-01 2.8985996373043166e-01  6.2510078184766293e-01 6.3447065240150424e-01 2.1289898472664945e-01  6.2926011131732251e-01 6.4663365081770874e-01 2.1312433355319421e-01  5.7212071215705707e-01 5.4347357476871561e-01 1.3455686464903932e-01  4.9974204048348120e-01 2.8066857776134413e-01 8.8242794362911561e-02  4.9188115542573818e-01 2.4801594171361244e-01 8.1684338986254060e-02  5.5505528285372197e-01 4.8098629867702880e-01 1.3099360170398833e-01  4.9062909537071603e-01 2.2756831742919467e-01 8.9727245837676523e-02  4.8432763113215194e-01 1.8416679077445877e-01 9.3774016592610698e-02  4.8270765071210164e-01 1.7137276343180610e-01 9.5526055818827338e-02  4.8175072959849058e-01 1.5941224166153717e-01 9.8927544053174193e-02  4.8173540614019045e-01 1.5859618288058558e-01 9.9323550882770353e-02  4.8172983006296605e-01 1.5827959170408812e-01 9.9480063911950703e-02  4.8173276436625001e-01 1.5846671486517325e-01 9.9386408002622412e-02  4.8174433284675144e-01 1.5900762363411097e-01 9.9125991099543870e-02  4.8176662824207983e-01 1.6013646467841439e-01 9.8576308347142802e-02  4.8178003248146745e-01 1.6204832435552971e-01 9.7561661494950117e-02  4.8187125846278051e-01 1.6615857108497745e-01 9.5589090548678507e-02  4.8357332050169372e-01 1.8849070380146915e-01 8.8824248725925981e-02  4.8620142381702619e-01 2.0838509547772985e-01 8.6199154396464042e-02  5.3199398302009782e-01 4.0942293232304700e-01 1.0899173248219980e-01  5.7423423740480473e-01 5.4372396285354407e-01 1.4126319605307178e-01  6.5945803362538469e-01 6.7062134282389418e-01 2.6961783685699903e-01  7.1763730254507307e-01 6.8361375725674700e-01 3.9376748852038745e-01  7.1948733065758408e-01 6.3263778715425556e-01 4.7215299625043750e-01  6.9110221628605861e-01 2.9042816867521054e-01 8.0612482210625303e-01  7.5155971133123978e-01 3.8831267168630396e-01 8.2972552720345794e-01  7.9331352170343139e-01 5.4410751362388476e-01 6.9921807712529704e-01  7.9437383492330804e-01 5.5033168291352907e-01 6.9212647067972066e-01  7.9076844123742041e-01 5.3007613790033514e-01 7.1463860614739361e-01  7.8374170322892289e-01 4.9480254893298564e-01 7.5107448771024343e-01  7.5577650414165676e-01 3.8875478426123772e-01 8.3446922277528213e-01  6.8415329479947817e-01 2.2884071272334347e-01 8.3637831092651949e-01  6.6158403996622051e-01 3.4989227718158306e-01 6.6320447540835414e-01  5.7421989005998253e-01 5.0313689482020008e-01 1.7986122410910643e-01  5.1783479492038331e-01 3.5592608790782571e-01 9.9170141480955584e-02  4.9874219232253336e-01 2.8528297055820889e-01 8.1534777628108415e-02  4.9259664905924333e-01 2.5487358398767523e-01 7.9823863964887082e-02  4.8717604666872166e-01 2.1517670437771116e-01 8.5524597881469919e-02  4.8222682923708104e-01 1.6418337557174556e-01 9.7913696911208117e-02  4.8215617020981377e-01 1.5635261380994980e-01 1.0205809625574855e-01  4.8277831211356703e-01 1.3438408425670731e-01 1.1650714512674540e-01  4.8335037717938684e-01 1.2889129599726606e-01 1.2160589706347838e-01  4.8517103367422065e-01 1.1618517703180758e-01 1.3528725636446867e-01  4.8258925935947738e-01 1.4196887326569457e-01 1.1162883034593082e-01  4.8218952493070849e-01 1.5133516552538454e-01 1.0499014684079741e-01  4.8242001353861585e-01 1.6974199306251203e-01 9.5435097597774229e-02  4.8385550959894125e-01 1.8927680129140056e-01 8.9260553888255018e-02  5.0184381982662496e-01 2.7813424433193662e-01 9.6276813999736338e-02  6.0856258912783434e-01 6.0203594624366275e-01 1.9878133853255336e-01  7.5535897485721104e-01 5.7719318225914740e-01 6.0888547175063090e-01  7.7451864176776719e-01 5.9236395760389471e-01 6.1566638307091348e-01  7.8894559358839400e-01 6.0857187822461423e-01 6.0888943029940945e-01  7.9900865036705326e-01 6.3867660796603032e-01 5.7517455718170873e-01  7.9861716688712792e-01 6.2820525141656192e-01 5.8986329429067219e-01  7.9865373028532882e-01 6.1528438950476239e-01 6.0818933655149321e-01  8.0030414573397890e-01 6.3578238161949152e-01 5.8040532374969456e-01  7.9958574316023756e-01 6.3076693545575435e-01 5.8703331002534098e-01  7.6060246230998008e-01 5.2571119528274424e-01 6.8531201609819237e-01  5.8770553878818965e-01 5.7565098305466311e-01 1.5487570948095761e-01  4.9176458919049032e-01 2.4609676253926002e-01 8.2402388256675757e-02  7.3966895852598857e-01 3.5661714851164028e-01 8.4259302403835190e-01  5.0928688515969966e-01 3.1017783149682926e-01 1.0076498454568328e-01  7.9323352262992985e-01 5.4391629065185787e-01 6.9936325358926565e-01  5.6180958351976207e-01 5.0240290585836067e-01 1.3614490707063764e-01  7.9896977804835179e-01 6.1699528395504644e-01 6.0604021657059504e-01  7.8473715193692362e-01 5.9265398821518867e-01 6.2672040715137534e-01  7.5377321877063130e-01 5.1650628637037210e-01 6.8682991171524632e-01  7.9954435662855872e-01 6.2778993409526629e-01 5.9124034647169299e-01  5.3647496315760235e-01 4.1111486031511679e-01 1.2258751907260357e-01  7.0004894527683392e-01 5.9637953191407533e-01 4.7065221033444926e-01  7.2828319011343168e-01 5.4997346455706941e-01 5.9688674034880140e-01  7.6692911965750921e-01 4.2630382551730861e-01 8.0980553724524906e-01  5.1169535867092608e-01 3.2181159959277139e-01 1.0117716368825912e-01  5.3842229037779121e-01 4.1786013829935142e-01 1.2406958274185621e-01  4.8241947933542284e-01 1.6937909387877384e-01 9.5658186365385256e-02  7.0507987206402778e-01 2.6674204010592789e-01 8.5551023600997900e-01  7.0918932996037753e-01 5.5178919950506289e-01 5.5363786563032835e-01  4.9396213010547857e-01 2.5102463740791570e-01 8.6769887465789147e-02  7.2660481239748975e-01 4.9412253136510692e-01 6.6657959665047994e-01  5.1286525305036823e-01 3.2734120591875726e-01 1.0154876272313305e-01  5.4361066897654264e-01 4.3439168445757853e-01 1.2968396397138987e-01  4.9627848840018290e-01 2.5587419856571808e-01 9.1446055647513097e-02  7.1484158172985313e-01 3.0423268135022025e-01 8.4604117384827493e-01  7.3790890043957480e-01 3.5268636009057652e-01 8.4374615323808400e-01  7.1764741851533631e-01 3.1362430382634821e-01 8.4381241121550388e-01  7.3940522972319178e-01 3.6000409885051371e-01 8.3949468449890985e-01  7.2240192167206274e-01 3.3145845223469672e-01 8.3733740722574435e-01  7.5722942859890929e-01 4.0516480482899647e-01 8.2032884886909796e-01  7.5802106218915388e-01 4.1151703654984578e-01 8.1493299271363062e-01  7.7158073339939959e-01 4.5358861494987585e-01 7.8588625336622397e-01  7.7197046401850866e-01 4.5946033489128613e-01 7.7981136595618306e-01  7.8162338430098788e-01 4.9517002755403616e-01 7.4861637192866592e-01  4.8285839459741425e-01 1.3770145964027397e-01 1.1496158599584282e-01  7.1089216391449195e-01 4.9409865223602700e-01 6.3277300323527241e-01  7.8203406287395161e-01 4.9375777512699948e-01 7.5068555539416082e-01  7.8865652619641158e-01 5.2668182953448850e-01 7.1698556517006617e-01  6.8177068156579079e-01 6.5388859400410715e-01 3.5151806871475888e-01  7.5990917745194619e-01 4.2441604861131138e-01 8.0394403667608072e-01  7.7324924828568131e-01 4.7130382228049239e-01 7.6783674533707136e-01  4.9698295711719914e-01 2.5898831408735623e-01 9.1873526691587382e-02  4.8809513540395572e-01 2.1386525282198149e-01 8.9277947084768230e-02  7.1853081398972540e-01 4.2217153117003486e-01 7.3625509247016452e-01  4.8526815121416378e-01 1.9636330111897496e-01 9.0006176659197829e-02  7.6192442400306803e-01 4.4157879703633229e-01 7.8803780782549793e-01  7.7484641341927163e-01 4.8740177042227162e-01 7.5090798153296301e-01  7.8293256218391249e-01 5.1306318177772992e-01 7.2837347818522369e-01  6.6567226578738647e-01 4.2107760849855858e-01 5.9824224120834080e-01  6.4085360826000748e-01 5.3399091963129497e-01 3.8381007988561244e-01  7.8914454451622473e-01 5.2626517171121512e-01 7.1795117605682157e-01  7.9299875315558332e-01 5.4914520431468183e-01 6.9244899202543131e-01  7.9308685960193137e-01 5.5377898547380655e-01 6.8653727381992158e-01  7.9542447525909488e-01 5.6691954088510021e-01 6.7139331965731464e-01  7.3630803852873505e-01 4.4829691550964695e-01 7.4106098168803047e-01  7.2313809395484641e-01 3.7650552730477083e-01 7.9529121256931767e-01  7.4310965269929508e-01 4.2240133002307412e-01 7.8211471292219670e-01  4.8269529853160542e-01 1.3598279431422527e-01 1.1532466257208347e-01  7.8440669740804592e-01 5.2893386554425781e-01 7.1019241035545932e-01  7.1018817747684959e-01 5.7414820529492028e-01 5.2580280806499358e-01  4.8812397585502498e-01 2.1375476008478372e-01 8.9473320506185477e-02  4.8410637114698124e-01 1.8760701394618950e-01 9.1068928071708702e-02  4.9988300503859934e-01 2.7232412830034841e-01 9.3479079894989645e-02  6.6278870796355338e-01 5.1175277176763201e-01 4.8135749157398205e-01  6.8811537176736814e-01 5.7408314048057518e-01 4.7301727653489817e-01  7.0451224564386938e-01 3.0774345742406028e-01 8.2270767300113790e-01  7.1138024718283666e-01 3.3544665992758138e-01 8.1228198715289202e-01  7.0128797341690341e-01 3.4702015703505623e-01 7.7852790915947845e-01  7.0733777662033726e-01 3.8454480117035483e-01 7.5347242156994954e-01  7.0124728414854764e-01 4.3125281334089394e-01 6.8651622304677973e-01  7.0135603379002287e-01 4.7268055250645680e-01 6.3695909889496694e-01  7.1124537613373540e-01 4.3118305974951160e-01 7.0998606628515193e-01  6.9729857008145857e-01 5.1807963033560778e-01 5.6973062103324568e-01  7.1088986090186213e-01 4.8279959081929130e-01 6.4695276733614759e-01  6.8711663702147729e-01 5.5999959279140665e-01 4.8895119997782122e-01  6.6428078347421504e-01 5.8364511240757999e-01 3.9444373362877139e-01  6.4376982359836443e-01 5.9233458290576435e-01 3.2096431509188139e-01  6.1368165411921338e-01 5.7215681023969489e-01 2.4610670506700380e-01  5.8933978892588634e-01 5.3787164387274033e-01 1.9830773109407707e-01  6.7017035208011932e-01 5.8990530059901869e-01 4.0317168984802843e-01  7.0552989093772522e-01 3.4506573961211423e-01 7.9002471777223626e-01  7.2923591970535839e-01 3.5905073943110172e-01 8.2381218074213503e-01  7.5003077530150031e-01 4.1636077522134984e-01 7.9914785256261112e-01  7.3853164214664924e-01 3.6496642262520024e-01 8.3337352896225558e-01  7.5800236926171161e-01 4.2620930486182068e-01 7.9942096571984134e-01  7.5086538862064911e-01 3.9072088401190580e-01 8.2634456313647209e-01  7.6672420462281787e-01 4.4774677254399486e-01 7.8673672716453946e-01  7.6247169192588615e-01 4.2333824155769839e-01 8.0776737930143461e-01  7.7513108248129137e-01 4.7563397281076142e-01 7.6466012793950344e-01  7.7272096954935465e-01 4.5856969149855131e-01 7.8144878739197032e-01  7.7941842329161259e-01 5.0423288812198552e-01 7.3548994632251852e-01  7.8242301708631101e-01 5.0536604873585933e-01 7.3707083749628444e-01  7.8128628442473980e-01 4.9427060763507674e-01 7.4921497433073692e-01  6.2665870522460443e-01 5.6167235564765383e-01 3.0301460094390026e-01  5.6053307610330927e-01 4.7540525543998774e-01 1.5527486100466081e-01  7.9489091559466951e-01 5.5923603311413206e-01 6.8102442242544203e-01  7.9574056906704027e-01 5.6761088870971332e-01 6.7075236687211159e-01  7.9676986677406358e-01 5.7993983193706389e-01 6.5520077180826386e-01  7.9604444089417825e-01 5.7362631270460751e-01 6.6302296976323860e-01  7.9412462265154304e-01 5.5617424018978845e-01 6.8432942268682118e-01  7.9747315453199608e-01 5.8945564347075496e-01 6.4292729447948582e-01  7.9840692052046225e-01 6.3470517623086986e-01 5.8038372578749897e-01  7.9585934051297391e-01 5.7601360466128759e-01 6.5965371494352920e-01  7.6388354414193504e-01 4.6309327330610067e-01 7.6638793518632031e-01  7.8981559707245896e-01 5.4973523103217581e-01 6.8882127072549437e-01  7.9113614447361247e-01 5.6515279115175854e-01 6.6993626301083431e-01  6.8868872063140008e-01 5.3241293740949003e-01 5.2946013962169058e-01  7.8833111978437731e-01 5.3408396177683126e-01 7.0730826952127268e-01  4.8707470235776329e-01 2.0339193976319317e-01 9.1998319734355197e-02  4.8818926244896438e-01 2.1442519184020964e-01 8.9243666696163973e-02  4.9416811606918903e-01 2.4333182627069563e-01 9.2075949875673566e-02  7.8559352102548718e-01 5.4520992702359095e-01 6.9070151568575866e-01  7.9765226054967042e-01 5.9268117136008436e-01 6.3868035220631703e-01  7.9865221648966911e-01 6.0595469496073495e-01 6.2123752535303300e-01  5.2403015402516018e-01 3.7187798740550454e-01 1.0897876556396857e-01  5.8157635994096435e-01 5.2397569214934225e-01 1.8496864667729784e-01  6.4997735297545778e-01 5.6576802191477815e-01 3.7418241640442301e-01  7.5983596765784134e-01 4.0734388531550508e-01 8.2117684190112472e-01  4.8403799035610601e-01 1.8659812405334741e-01 9.1414283481451211e-02  4.8265905650684099e-01 1.7270018460012851e-01 9.4605498788933290e-02  4.8222857881567371e-01 1.4922561605089882e-01 1.0630090064385095e-01  5.7297333432496400e-01 5.1553044081937915e-01 1.6254639613131525e-01  4.8402130790466402e-01 1.8721471664440237e-01 9.1021963062832917e-02  5.3452392218246836e-01 3.9995086320992335e-01 1.2477548485417114e-01  4.8272374641347648e-01 1.7416732863360881e-01 9.3996154805929044e-02  4.8228548854493147e-01 1.6465583521151961e-01 9.7847306810700474e-02  4.8226947375054624e-01 1.6376043481631350e-01 9.8297865774634952e-02  4.8620320968649533e-01 2.0333717980991484e-01 8.9038489763281728e-02  7.2226724181730317e-01 4.1600435636580035e-01 7.5112861522900076e-01  7.2303749564110908e-01 4.6391597073740448e-01 6.9670269301540777e-01  7.9425140141879502e-01 5.4970316781685580e-01 6.9286611371256290e-01  7.9975570808951513e-01 6.2607581231794729e-01 5.9384410985400737e-01  4.8203504554776738e-01 1.6611124747408235e-01 9.6171679047678413e-02  4.8220057551370482e-01 1.5769112971916274e-01 1.0146622743539231e-01  4.8219984490153367e-01 1.5614298931456830e-01 1.0233219679897634e-01  7.6710640906263028e-01 4.7524524766615905e-01 7.5606684165458538e-01  6.7820060908767044e-01 6.2428858542624610e-01 3.8065537871680422e-01  6.9421957172432425e-01 5.9285844299781298e-01 4.6341771559691458e-01  7.5396408077874444e-01 4.9009075760587412e-01 7.2039770171274509e-01  4.9139144859839390e-01 2.2695505431702584e-01 9.2620958305647205e-02  7.9462359525147741e-01 6.0173114109865222e-01 6.2363400340507646e-01  7.8941560491560681e-01 5.4617668997670588e-01 6.9289733402159792e-01  5.9364782127961357e-01 5.3222658429650549e-01 2.1989315630637640e-01  5.7523242460129143e-01 5.0755580776628506e-01 1.7824079334313472e-01  7.9303146200590102e-01 6.1231539543437385e-01 6.0747119448856590e-01  6.9893922773703532e-01 3.9530928199680293e-01 7.2199673113550178e-01  4.8335631915518829e-01 1.2934367124891002e-01 1.2137825634739542e-01  5.0541737433546652e-01 3.0511277378474921e-01 9.1328340762294041e-02  6.7853752328816208e-01 4.9672052485287171e-01 5.4666102915077242e-01  7.8333067445012472e-01 4.9768504078015441e-01 7.4728871633954586e-01  6.5577295281777648e-01 6.2472630946536067e-01 3.1690482176913554e-01  7.8792391590968780e-01 5.2692943865313080e-01 7.1591103636419617e-01  7.8164934333129044e-01 4.9193544494913011e-01 7.5233278403895532e-01  7.9307592124525583e-01 5.6660866089488671e-01 6.6965832829000271e-01  7.1835651453480698e-01 3.1448950634167905e-01 8.4425887264636623e-01  6.6188466987151229e-01 6.2517761887775070e-01 3.3364267684209836e-01  4.8219947051963535e-01 1.5913147523053234e-01 1.0065288071596909e-01  7.9471850381