<?xml version="1.0"?>
<VTKFile type="UnstructuredGrid"  version="0.1"  >
<UnstructuredGrid>
<Piece  NumberOfPoints="600" NumberOfCells="1069">
<Points>
<DataArray  type="Float64"  NumberOfComponents="3"  format="ascii">239.8 188 0  250.2 180 0  258.2 172.4 0  257 169.4 0  259.9 157.4 0  258.7 150.3 0  261 143.5 0  251.7 144.4 0  250 138.7 0  247 138.1 0  245.2 130.8 0  247.3 126.4 0  242.7 118.6 0  231.2 107.7 0  226 102.4 0  226.5 93.90000000000001 0  224.5 91.19999999999999 0  224.5 84.09999999999999 0  234.5 73.80000000000001 0  228.4 68.90000000000001 0  230 70 0  233.4 68 0  222.7 61.5 0  220.6 45.5 0  223.4 49.40000000000001 0  224 47 0  221.8 43.09999999999999 0  221 38.40000000000001 0  219.5 38.5 0  219.4 41.69999999999999 0  217.1 36.90000000000001 0  209.7 36 0  209.5 31.69999999999999 0  205.1 29.90000000000001 0  201.5 30.40000000000001 0  199.2 38.69999999999999 0  201.8 41.40000000000001 0  194.8 53.80000000000001 0  196.1 57.69999999999999 0  193 59 0  191.4 66.09999999999999 0  193.5 66.5 0  194.1 64.40000000000001 0  195.6 64.69999999999999 0  195.4 72.40000000000001 0  199.5 77.30000000000001 0  197.7 86.90000000000001 0  200.6 87.5 0  201.5 91 0  198 94.80000000000001 0  198.6 100 0  197.3 105.4 0  198 109.5 0  197 112.7 0  198.3 116.1 0  201.3 122 0  207.2 121 0  208.1 126.7 0  205.6 127.9 0  209.1 134.9 0  210.9 144.4 0  210.1 147.9 0  213 148.4 0  215.4 149.3 0  215.1 152.8 0  219.9 159.7 0  220.3 163.2 0  218.7 164.9 0  219.9 166.7 0  221.9 169.7 0  220 170.3 0  224.9 174.7 0  229.8 177.4 0  229.7 181 0  228 172.9 0  239 178 0  240.4 180 0  239 181.5 0  241.2 185.9 0  242.95 187.99 0  241.113414658978 187.995830429654 0  242.142964269982 187.9925620181905 0  243.6619187087475 187.2054164851183 0  244.631513060971 186.1368566403919 0  245.9520480703466 184.6815359886801 0  247.7505449816197 182.6994683581873 0  252.8666666668011 177.466666666539 0  255.5333333336077 174.9333333330727 0  257.9666666666661 165.4000000000025 0  258.9333333333339 161.3999999999974 0  259.3000000000018 153.8500000000108 0  259.849999999995 146.9000000000149 0  256.350000000011 143.9499999999989 0  250.8500000000015 141.5500000000051 0  246.1000000000042 134.450000000017 0  245.0000000000049 122.5000000000082 0  239.8250000000041 115.875000000004 0  236.9500000000083 113.1500000000079 0  234.0750000000041 110.4250000000039 0  228.6000000000041 105.0500000000042 0  226.25 98.15000000000002 0  224.5 87.65000000001388 0  227.8333333333301 80.66666666667 0  231.1666666666644 77.23333333333571 0  232.2500000000014 71.90000000000116 0  230.8999999999995 68.45000000000009 0  225.5500000000108 65.20000000001409 0  222.9333333333329 57.46666666667507 0  223.1666666666663 53.43333333333877 0  218.2500000000016 39.30000000000339 0  213.4000000000277 36.45000000000337 0  200.3500000000025 34.54999999999097 0  199.4666666666726 45.53333333332282 0  197.1333333333385 49.66666666665756 0  193.5499999999978 61.6999999999891 0  193.3999999999962 69.24999999999406 0  197.4499999999954 74.84999999999454 0  198.6000000000007 82.09999999999631 0  199.7500000000014 92.8999999999985 0  198.2999999999997 97.39999999999726 0  197.950000000001 102.699999999996 0  199.7999999999944 119.049999999989 0  204.2499999999946 121.5000000000009 0  207.6499999999987 123.8499999999919 0  207.35 131.4 0  209.9999999999998 139.649999999999 0  217.4999999999938 156.249999999991 0  223.4 172.2 0  234.349999999995 179.5000000000016 0  243.6879031604435 137.0140197666175 0  200.5383884465266 74.3488835611292 0  236.0631303447202 117.0934887033495 0  255.2860706566257 162.4962097513293 0  210.288597171716 124.9641969758756 0  200.5494091764226 101.6938959209836 0  221.0463142825589 155.4583368622661 0  213.2458552033902 137.0182369603261 0  202.5715495252679 76.72215432732189 0  203.3954031521662 88.63888283314805 0  204.2685850489914 91.3771816532193 0  227.6002395557545 108.6285485308707 0  203.628067965887 73.80056467640915 0  205.5882193517793 76.19298591547215 0  219.3893731065793 59.36381842571261 0  222.6962970705901 100.2685345181304 0  206.2147206748961 89.23684943534887 0  224.5717795045128 68.90112930058935 0  207.1505150846513 91.97409496002633 0  206.6973804802006 73.20614062920998 0  209.0198262461606 75.84435446174592 0  204.6828826698789 70.78585325419728 0  244.5505030757118 140.1958289722003 0  241.2713205316759 139.2760911012237 0  242.0887623359319 142.523888210035 0  238.8201809392432 141.5810446831215 0  239.6254755922404 144.8663288044098 0  238.0282380951174 138.3361101328854 0  235.5650201404635 140.6403522599634 0  234.7868703265066 137.3765638391416 0  232.3671992655526 139.7040340002533 0  231.5735594060041 136.4371341666237 0  203.6025996895933 45.13245413868078 0  209.0094500142995 89.77916893533093 0  234.0048963149566 134.0619286436701 0  230.7388584519252 133.0932019642386 0  256.0202376970822 152.4353991158102 0  233.1239077827668 142.9168616681826 0  229.9476468053365 142.0041066209365 0  207.8316386186595 70.1760146256688 0  205.8080150778045 67.77328389450008 0  210.1255397865818 92.58553759086743 0  249.9530000513888 175.7831884132348 0  230.7520925362455 145.2114145624654 0  227.5614746466729 144.2879078440436 0  226.855634298717 141.1029513419209 0  221.109901317114 86.07738557802102 0  221.3898452401857 82.41394785245797 0  233.1906280944642 130.7538222264552 0  229.849944657733 129.8156996791429 0  227.4514186000422 132.1240250470279 0  226.5693510741891 128.7503487535618 0  208.0732626511005 94.86195720558288 0  211.0579654481564 95.54875779444082 0  209.0041892644107 97.86214677695602 0  216.7276956906574 41.503774594868 0  224.4517166451922 143.3327513982825 0  222.7890579510523 161.0597281586643 0  209.0698801997012 67.10609773523754 0  206.9141710660066 64.58868367949086 0  211.5265666272545 70.15591236789595 0  218.2872405225432 83.97244872861398 0  207.7311279855657 86.71297189445447 0  242.9081583239214 145.8040728889821 0  240.4621480942806 148.1601866910276 0  243.7562457682554 149.0907552716282 0  241.3145175595932 151.4726760652338 0  244.57940289053 152.3666461928266 0  242.1615185950008 154.7794567484269 0  238.8718789959482 153.837018554675 0  239.7122407256576 157.1523621063041 0  236.4289375384117 156.2070529629317 0  237.2412111497984 159.5248795948406 0  240.5638486223294 160.4901132255754 0  238.1023772270576 162.8725976094984 0  241.406699334305 163.8359650846702 0  238.9630278156374 166.2175426435888 0  234.7361516891476 161.8928266488476 0  213.124654294145 93.56046727196781 0  212.0434836741439 98.5447165103807 0  209.9504013355788 100.9044854564887 0  213.0958854424699 101.5871381629478 0  210.9302285957408 103.9580876602797 0  214.0010858928389 104.7096094485587 0  211.9141605791952 107.0615795921763 0  214.9890206858068 107.8102538193681 0  212.9269247290344 110.1901972673309 0  216.0786784436673 110.8721476340726 0  209.7617142319936 109.4041944495815 0  213.932211035267 113.2627867337288 0  217.0813395790477 113.941453344218 0  218.441750941724 80.63655841437071 0  242.2412500877879 167.1781012200828 0  229.2280100589433 126.5393356137107 0  225.9203624138538 125.4446005931909 0  223.3571983269889 127.7265579015054 0  222.6136526124249 124.535547281476 0  225.3056527306165 122.1016033222114 0  220.3254947810712 126.7409252226328 0  201.0777098578984 116.3274181811247 0  219.7857338015156 123.3740225787907 0  228.3312248450329 147.5116593523427 0  223.7608055035202 140.2236832285434 0  221.3299816979287 142.3937311365609 0  245.4512147769152 155.7068319139237 0  214.9140854911084 116.3016229600955 0  241.4261562479406 177.9745543740275 0  202.8157779574545 68.56000166221941 0  240.0703975438099 175.788326095019 0  222.1092806876692 145.4935485219417 0  220.9446699547174 129.9892194059113 0  217.7131509102484 129.0121441451285 0  231.966766611991 173.6290727753235 0  244.7035101352062 164.8150950666352 0  215.4589412711449 82.35047797613059 0  218.5358717759109 108.3057574313637 0  210.0910095413371 63.89870618133642 0  207.8879031726656 61.27101234314142 0  219.5945508510063 49.26517889117938 0  204.4640092132492 79.16637174968085 0  219.054165325738 63.24726086273807 0  245.5364828646638 168.1932520030346 0  204.1722248369768 62.21708558088665 0  205.6821920907016 58.50393459316535 0  209.6155639374877 57.86856426712311 0  196.5553895895766 69.81481204083099 0  235.6123608690412 152.8874163252039 0  233.2157615582107 155.2532908181879 0  240.6837858645011 122.4172544901715 0  210.8141135626509 127.8682271622992 0  245.3812170314571 182.2522052029404 0  206.9456715292139 54.99559933887414 0  210.5075513436263 54.0697256538542 0  207.9169085133073 103.1765167571325 0  223.2431750051092 164.070583057325 0  225.7483443677002 162.1151723759482 0  206.0378951001477 96.94148998994152 0  242.6796154699829 175.6597339900036 0  214.6838055972238 146.7252062992904 0  211.9990465678071 115.5576487680909 0  221.4613603554043 78.78973924681317 0  218.3291154698718 77.0769598533563 0  200.3358005877804 107.1120377748188 0  247.4072167499741 149.4171847419639 0  211.6397508657857 39.55684201930068 0  226.8243927196049 72.17619845696734 0  215.354291780634 85.55308818793476 0  236.5600255652378 131.6759521500912 0  226.0129792461303 165.2837912620818 0  218.060680211082 117.0067370946569 0  220.2726382852709 114.6051380114157 0  212.8793579154693 118.3711453694285 0  215.022609143906 99.35520341734289 0  203.0459334752391 85.71272568041367 0  202.8915272398735 55.67723839797077 0  220.5465456567309 139.1747891305704 0  239.6921265383864 169.3260213165692 0  236.6712881821608 168.5826958099534 0  218.0125893802946 141.5012621699478 0  201.3193403438535 110.3399099823547 0  203.3799271438462 107.9393487975089 0  248.1978655115356 165.7601936670729 0  248.8804221900089 169.2105116441819 0  237.1867529048816 147.1869371163321 0  236.7369473929319 176.2832209442509 0  247.3010859001464 162.3677476585113 0  204.3727171343656 110.8209535355564 0  235.7766571132668 128.3537547116865 0  217.8932394506906 150
[...]
<PointData  Vectors="f_12"> 
<DataArray  type="Float64"  Name="f_12"  NumberOfComponents="3" format="ascii">5.3308708589707743e-01 8.6640787606379832e-02 3.6087307658500800e-01  5.0221277430415245e-01 1.0666269077136896e-01 2.1235371055758337e-01  4.9912227113877489e-01 9.4942397739406242e-02 2.0481693345177704e-01  4.9646011215636326e-01 1.0303621191031892e-01 1.8895883610601122e-01  4.9112402381285475e-01 1.0160818449954404e-01 1.6729945099470950e-01  4.9195682973643368e-01 1.0188385467420705e-01 1.7016403424945895e-01  4.9512360820761309e-01 9.1932659530817903e-02 1.8818370221962036e-01  4.9045738015492929e-01 1.4494687452832727e-01 1.4035658494643835e-01  4.9745949033740927e-01 1.6434366614761362e-01 1.5734360071864908e-01  5.1147986827818703e-01 1.6053295660148167e-01 2.1766866964071294e-01  6.5637451443262118e-01 2.1249711706123831e-01 7.6232391151099177e-01  7.4039024269021603e-01 3.5827548067918008e-01 8.4929691965833265e-01  7.3109410172563816e-01 3.2352784376759558e-01 8.5854895269449860e-01  6.6630515611701913e-01 1.7655784502085783e-01 8.1581850042703274e-01  6.7204865920424572e-01 1.8250319917576727e-01 8.2807926189992009e-01  6.2222484401131428e-01 1.2483590102896731e-01 7.0348695563070573e-01  5.8342291651179801e-01 1.0214468497413404e-01 5.6079625687745116e-01  5.1820765879300879e-01 8.7407183325992510e-02 2.8924395421576754e-01  5.4440006369143445e-01 7.8586454261758240e-02 4.1043859079339245e-01  5.1491696861271241e-01 1.0169404549460703e-01 2.6543426954224880e-01  5.2334099825042923e-01 8.9973241268476334e-02 3.0895557724747547e-01  5.2456188045493446e-01 7.9166968718436953e-02 3.2258889297542048e-01  5.2222589700989674e-01 2.9727166900903890e-01 1.6114687968368163e-01  6.6876114036448009e-01 6.2250417061231289e-01 3.6291658597535748e-01  6.4790630362546886e-01 5.3944590981356466e-01 4.0593569166691407e-01  6.7565994502067794e-01 6.5027786512993047e-01 3.4407520818188619e-01  6.7097697614040497e-01 6.5316216115344927e-01 3.2771714157164078e-01  6.6862547517000259e-01 6.9384215868840815e-01 2.6660100173378837e-01  6.6846691116238854e-01 6.9053313783441117e-01 2.7061510630390934e-01  6.6782068027024466e-01 6.6222466822294646e-01 3.0691336115145901e-01  6.4837566065167029e-01 6.4762794831560322e-01 2.7118510144170493e-01  5.8349879828246942e-01 4.9731986918447935e-01 2.2125266090173959e-01  5.3664452880906055e-01 3.9634863705093210e-01 1.3823754611868724e-01  5.2096587011262363e-01 3.5168960054178361e-01 1.1496708062222329e-01  5.1862184750916451e-01 3.4452538390301718e-01 1.1181228653069207e-01  5.6132195857994838e-01 4.1527688009542441e-01 2.1749385882128242e-01  5.8530482939918227e-01 3.7776982279627397e-01 3.5202554499511612e-01  5.8425894424442959e-01 1.1425157343226486e-01 5.7687638533811580e-01  5.5862776240808054e-01 1.0766599204772885e-01 4.6477270634161766e-01  5.4748466066863699e-01 1.0167581469853820e-01 4.1903458621304351e-01  5.0834848587444170e-01 1.6261537325836123e-01 2.0478777525504621e-01  5.1095625435639203e-01 1.7062384628261670e-01 2.1011325090812757e-01  5.2923515912667307e-01 1.2755971819508855e-01 3.1822443103646209e-01  5.2342631172608789e-01 1.4551761776977953e-01 2.8057236967768212e-01  5.2185060143863959e-01 2.6042588909935077e-01 1.8960872693438824e-01  5.3106586881350282e-01 3.7396967668483500e-01 1.3514749524497610e-01  5.1000944664059633e-01 2.8927233481786052e-01 1.1989343957216894e-01  5.0945235349047557e-01 2.5459253021481598e-01 1.4253147272667593e-01  5.1601330131451806e-01 1.4889305896362443e-01 2.4180185183774094e-01  5.4521055460314716e-01 9.9385672678185016e-02 4.0057365338381062e-01  6.0995550243838104e-01 1.2587883034808289e-01 6.5190831904567159e-01  6.8902188023537791e-01 2.1420583039000704e-01 8.5292331138979349e-01  7.1707513485931440e-01 2.6727300419364780e-01 8.7615412957292771e-01  7.2688285500280159e-01 2.8938336783610769e-01 8.7670437110001498e-01  7.2990858898919708e-01 2.9679574013931959e-01 8.7596577505315254e-01  7.2926002735100037e-01 2.9579935064610813e-01 8.7564005708839210e-01  7.2026216544615096e-01 2.7637048966121386e-01 8.7484715061894935e-01  7.3385240858989853e-01 3.1411893351065179e-01 8.6896307458099209e-01  7.3870167101582618e-01 3.2725137364246648e-01 8.6599588385101933e-01  7.5541619749343547e-01 3.7687980140816202e-01 8.4668905997477439e-01  6.3375789716025399e-01 1.6676856985135211e-01 7.2613199031886255e-01  6.0095718341613769e-01 1.3626324420814831e-01 6.2634110205488580e-01  5.8936034784122826e-01 1.4908067204905420e-01 5.6349906252340554e-01  5.5881093141357829e-01 1.9275261727559337e-01 3.9908756918225879e-01  5.4591079691293087e-01 2.8901156804946371e-01 2.6744488870653921e-01  5.4208768292023279e-01 4.3120341267800183e-01 1.2834470045084378e-01  5.2279075153313681e-01 3.8452004134869988e-01 9.5327039465121638e-02  5.1557116108359691e-01 3.5972115319853354e-01 8.8420941646408263e-02  5.1085774251057769e-01 3.4122652279877669e-01 8.5230530583545364e-02  5.0330682471462684e-01 3.0895996861700914e-01 8.1431022419877791e-02  5.0350344232397060e-01 3.1094322164595772e-01 8.0864978044121016e-02  4.9455512289929854e-01 2.6635301243988591e-01 7.9424489298171891e-02  4.8937987748657630e-01 2.2734888395860400e-01 8.6230894252732213e-02  4.8814727777703665e-01 2.2043101342863586e-01 8.6201635152271111e-02  4.9420146799789261e-01 2.6061877814296591e-01 8.1896048672056340e-02  5.0132719937479231e-01 2.1113853980277700e-01 1.4143983569735299e-01  5.0919274598725428e-01 1.4897402253438605e-01 2.1495375790388324e-01  5.1267551263309263e-01 1.2712957137904177e-01 2.4351605254906250e-01  5.2770821719643390e-01 9.2892966286283171e-02 3.3218730870892715e-01  5.3003005092580768e-01 8.9389718051047423e-02 3.4515885088758413e-01  5.3139241484509847e-01 8.8423548635521224e-02 3.5196243734723698e-01  5.3058510550081239e-01 8.9031091921318292e-02 3.4789618097520997e-01  5.2853760932828486e-01 9.0696355189844924e-02 3.3755774962743318e-01  5.2465662903029830e-01 9.4131935085229670e-02 3.1787890429494342e-01  5.1821066714659902e-01 9.8818063374763884e-02 2.8629465704075813e-01  5.0964193889751830e-01 1.0519242294334220e-01 2.4503629856381121e-01  4.9975330264790752e-01 1.0388503607657967e-01 2.0309337830044452e-01  4.9950860388523810e-01 9.7696689923585281e-02 2.0510939941280662e-01  4.9227552744097525e-01 1.0812800868456844e-01 1.6880175528339694e-01  4.9096735852092865e-01 1.0587900913936005e-01 1.6455860222676391e-01  4.9116581093630213e-01 1.0260338391170419e-01 1.6675887893410815e-01  4.9409384579394605e-01 9.5513201588868252e-02 1.8209296433989924e-01  4.9330287975271214e-01 1.0207514395524282e-01 1.7534123687282102e-01  4.9285353774072949e-01 1.6199986674610264e-01 1.4025319878571227e-01  5.6137661637782976e-01 1.4918275423169378e-01 4.3922088892862954e-01  7.5327997026805882e-01 3.8815523052096584e-01 8.3502245853921364e-01  7.0138729817485213e-01 2.5020036530409256e-01 8.5870772661219263e-01  6.7765202346896358e-01 2.0083414031214514e-01 8.3414964818844040e-01  6.6697923511960844e-01 1.8000252219095905e-01 8.1668650904027540e-01  6.7038887539223246e-01 1.8122534495704928e-01 8.2393976801029101e-01  6.5601139240637585e-01 1.5902426210542139e-01 7.9818621800561151e-01  5.3993846275423674e-01 8.7925179965075137e-02 3.8289249173043804e-01  5.2311793257585337e-01 8.1073633893943495e-02 3.1432020867223759e-01  5.3851693382354904e-01 7.8552261228700751e-02 3.8398201122968784e-01  5.3947664681576635e-01 8.0837915973948599e-02 3.8644124687081710e-01  5.2373747558785444e-01 8.5885918812237991e-02 3.1376499422325216e-01  5.0058022628888510e-01 1.6682753220611088e-01 1.6672297998499114e-01  5.6998965619653197e-01 4.2288220624693673e-01 2.4422573046232851e-01  6.1671745277896384e-01 4.9329752169119184e-01 3.5091967155733278e-01  6.5650137710189482e-01 6.5453754176696599e-01 2.8549397627845141e-01  6.3030816716213145e-01 6.0237014373628250e-01 2.7037723004548531e-01  5.3668225508544387e-01 3.8677944166941974e-01 1.4594643833026752e-01  5.8646730143679526e-01 2.0831805810880580e-01 5.1681165004806262e-01  5.8656077596878398e-01 1.3320725004615458e-01 5.7529502431261603e-01  5.3996486736807969e-01 1.0976918494309533e-01 3.7877472480189983e-01  5.1194113248100026e-01 1.8712421259117371e-01 2.0289632346184316e-01  5.3045868339467162e-01 3.3142449485471648e-01 1.6791401027632166e-01  5.1787261971135790e-01 3.3801301642379783e-01 1.1329128270121083e-01  5.3141014031478773e-01 1.1023346453442853e-01 3.3294343821718830e-01  5.6777568625391794e-01 1.0293122516888775e-01 4.9508283462603903e-01  6.5799355059462572e-01 1.7061541897923910e-01 7.9382783058498241e-01  7.2993957572324353e-01 2.9721409616233757e-01 8.7565966840079867e-01  7.2637050787501878e-01 2.8928197337352279e-01 8.7576873816995993e-01  7.2328833502087309e-01 2.8571098232743669e-01 8.7347513313185166e-01  7.4611014689129940e-01 3.4882889313438048e-01 8.5807533382961165e-01  7.2370428369053541e-01 3.0175993478665780e-01 8.6930058379158015e-01  5.4825539901048981e-01 3.8376018844817394e-01 1.9485229938838378e-01  4.9696888921004806e-01 2.7832626374805491e-01 7.9957259776053613e-02  4.9113487519687771e-01 2.2878616436388755e-01 9.1303791939352133e-02  5.3479398993570748e-01 1.4853919339544014e-01 3.2601095483151915e-01  5.3235496220951239e-01 3.5639370072662213e-01 1.5479982729052308e-01  6.9041503572836505e-01 2.2601279680909545e-01 8.5002683212329100e-01  4.9101429358632720e-01 1.1780672004205897e-01 1.5812671211553880e-01  7.2568335665414174e-01 2.9263964599267800e-01 8.7239001368054758e-01  6.3589310595018456e-01 1.4650437737682631e-01 7.3591193269871502e-01  5.4849187076425876e-01 4.0462258730135886e-01 1.7702471524356322e-01  7.3880678693534330e-01 3.3560705321209783e-01 8.6379611945170132e-01  5.3012027487618674e-01 3.7473050010398029e-01 1.3075969105541288e-01  5.0838833947164419e-01 1.9732429687578265e-01 1.7802127484794392e-01  5.1442576753443903e-01 1.4176492421435272e-01 2.3940542678040763e-01  6.6876030298365507e-01 1.7949917059668194e-01 8.2065798488017772e-01  5.3109746134658198e-01 3.6529566863665391e-01 1.4241314994838411e-01  5.2561033845740268e-01 3.6114696815482972e-01 1.2441839056695501e-01  5.4727716911215241e-01 3.7515693165216024e-01 1.9731802645498506e-01  6.6250511045792859e-01 1.6901450834049139e-01 8.0961046346064536e-01  5.0679664254586720e-01 1.6637097952321223e-01 1.9211390308641449e-01  5.0245055549259510e-01 1.3468824243791050e-01 1.9372274539277157e-01  5.1718546593172865e-01 1.2511992257765603e-01 2.6153479559295062e-01  5.2564637651119450e-01 3.5445978701230146e-01 1.3002732643348786e-01  5.1639310797452831e-01 3.2338618246467038e-01 1.1874123607909641e-01  5.2834287781292977e-01 3.3883927874431319e-01 1.5339706462404937e-01  5.0867920300015868e-01 1.6918772143554572e-01 2.0032299237529438e-01  5.2340668311904270e-01 1.5864499783829306e-01 2.7024307656058610e-01  5.0760874749453777e-01 1.9383237746251350e-01 1.7916536796282728e-01  5.1882408587834106e-01 1.8177853854153100e-01 2.3467851983092788e-01  5.1109212898273859e-01 2.3348954292134730e-01 1.6525558140028226e-01  5.4274676055068771e-01 1.4489011115586006e-01 3.6356173081266790e-01  5.3319474316376536e-01 1.6049876036523900e-01 3.1149721617194742e-01  5.7036984704380256e-01 1.3919060539383440e-01 4.8630253139329943e-01  5.5397130641659353e-01 1.4382855926845828e-01 4.1303424562417773e-01  6.0714745956800575e-01 1.5093576635965134e-01 6.2888061702128428e-01  5.9265050619022241e-01 2.8194052012780479e-01 4.7724569468278799e-01  5.0868868447223192e-01 1.3950962645469672e-01 2.1705558211235576e-01  6.3416912847208384e-01 1.7127835852937717e-01 7.1670814794253213e-01  6.7606935778184041e-01 2.1610401516791136e-01 8.2018924993698616e-01  4.9074383192164950e-01 1.1056392961748675e-01 1.6061250278721373e-01  5.2933200562565363e-01 1.8667685007794524e-01 2.7649010143466762e-01  5.4346340709076912e-01 1.5850879844380469e-01 3.5786632347382663e-01  5.2292132000136526e-01 3.3436855793662418e-01 1.3564567508094044e-01  5.2446170582836427e-01 3.0708514378206803e-01 1.6360259104260189e-01  5.2624752030791233e-01 1.1030002403318791e-01 3.0911326375022302e-01  4.9937895229169788e-01 1.1831830212201910e-01 1.9296442483923890e-01  5.2994354489902817e-01 2.2325340653636103e-01 2.5214676223173366e-01  5.3818346212566026e-01 1.8262139877802824e-01 3.1823549450942568e-01  5.6602335753334032e-01 1.4411961519074157e-01 4.6493436484348355e-01  5.2346848225212494e-01 9.2906286788078593e-02 3.0805287428950129e-01  5.0981079793262474e-01 1.0081105443725973e-01 2.4499689262659052e-01  6.9728816760348855e-01 2.4967125807542129e-01 8.5178794578367023e-01  7.1803909141931455e-01 2.8451699382966777e-01 8.6932359410829563e-01  7.0864045924760444e-01 2.6635604808705698e-01 8.6453892519434927e-01  7.2559931751107754e-01 2.9821610003716842e-01 8.7045862501440163e-01  5.4147083046492461e-01 1.0469163653141696e-01 3.7847372910288107e-01  5.5814916429465244e-01 1.0175940237978476e-01 4.5254670149923060e-01  5.8079025699565490e-01 1.0776231191628034e-01 5.4581455224009101e-01  6.5943198600089670e-01 6.3680630867158938e-01 3.1695384639420965e-01  5.5473824314264175e-01 1.5446932111809464e-01 4.1006489337901070e-01  5.3296626992792717e-01 4.1553344634038231e-01 1.0759288110512338e-01  5.2052459593546607e-01 3.1465862027872338e-01 1.4192756909724885e-01  5.2310888157488489e-01 2.7953574047871305e-01 1.8012199496056519e-01  5.1289014690366008e-01 3.0419114951340359e-01 1.2001098934492695e-01  5.0717428869084313e-01 1.1645478768137088e-01 2.2441586493347118e-01  5.0291974211617807e-01 1.9400827346368135e-01 1.5848922250375916e-01  5.0237132784351213e-01 2.2597174020199279e-01 1.3558246587541001e-01  5.0973140378415682e-01 2.7560894321449297e-01 1.2892123672222974e-01  5.0068911565156482e-01 2.4441038209603994e-01 1.1614216071581397e-01  5.0872533452974511e-01 2.9572459814606605e-01 1.1030288608125413e-01  4.9943301995980444e-01 2.4895030728850742e-01 1.0817186194027573e-01  5.0629867584846489e-01 2.9554457363424386e-01 1.0138123531429115e-01  5.1687658128378167e-01 3.4298718113314441e-01 1.0575587906717286e-01  5.1230817382684113e-01 3.3307938138661841e-01 9.6402400580795578e-02  5.2280802319826847e-01 3.7684383859796894e-01 1.0161487488503686e-01  5.1557627533764572e-01 3.5445439669182444e-01 9.2488548053279371e-02  5.0712396994397080e-01 3.1179019561739013e-01 9.3039904336017387e-02  5.0852916102642709e-01 3.2410711756492216e-01 8.9397680702787155e-02  5.0301364113265079e-01 2.8802763508449025e-01 9.4872998637511335e-02  5.0355193391439934e-01 2.9548769518101425e-01 9.1717945703808590e-02  5.1530431600015081e-01 3.5723078564435434e-01 8.9458399851373466e-02  5.4566717763226036e-01 1.0058822397687960e-01 3.9888349920694233e-01  6.0162796465761414e-01 1.1605611174440077e-01 6.2674245911430571e-01  6.2726937963814877e-01 1.3518144206306376e-01 7.1327152825023588e-01  6.4460127451525895e-01 1.5023761109667985e-01 7.6494002298315988e-01  6.6503892872782400e-01 1.7536563711911007e-01 8.1331532708458520e-01  6.7267365697456694e-01 1.8501057494945733e-01 8.2872649103247442e-01  6.8555097308352153e-01 2.0576715320797517e-01 8.4902944269022818e-01  6.8442038991429865e-01 2.0344672280184567e-01 8.4735756023526854e-01  6.9298389871524269e-01 2.1891961908197707e-01 8.5797575636423595e-01  6.8704164223155662e-01 2.0843553289364250e-01 8.5044191056334584e-01  6.9785831847623936e-01 2.2803984972899885e-01 8.6335698933741023e-01  6.9475213437029537e-01 2.2280336039355211e-01 8.5945049744082358e-01  6.8752425199470890e-01 2.1008135380724427e-01 8.5066354609511885e-01  5.0068272894670951e-01 1.3410271661839043e-01 1.8719008475487153e-01  5.0050782682209372e-01 2.6337058359320703e-01 1.0267369358371087e-01  7.2094441183297386e-01 2.8824853794624694e-01 8.6942815452999378e-01  7.1436414770902112e-01 2.7120072152829056e-01 8.6891192441617604e-01  7.2480178565580144e-01 2.9480394487242456e-01 8.7029034020193485e-01  7.0954912102703593e-01 2.5901821555202531e-01 8.6780645543675838e-01  6.9663393831101239e-01 2.3276144787898187e-01 8.5858622089371861e-01  7.2193701465949589e-01 2.8689812629946970e-01 8.7080908427944526e-01  7.2875601962151548e-01 2.9422327238570595e-01 8.7600899578191449e-01  7.0616950789444455e-01 2.5041340113521854e-01 8.6664655248491174e-01  5.3410863998506208e-01 2.6659281728219125e-01 2.3602828486672761e-01  5.9959844167765575e-01 1.5026997683153570e-01 5.9951669329143731e-01  5.8415803969552282e-01 1.4842295702297542e-01 5.3840854198515109e-01  4.9766070801216755e-01 2.4277677463211911e-01 1.0570326240075417e-01  6.9598964746707925e-01 2.2599554074595773e-01 8.6032743644656928e-01  5.0480380093219968e-01 1.7711088700261921e-01 1.7808464669151108e-01  5.2560086326067645e-01 2.8858286881866080e-01 1.8285408631362249e-01  5.0114794109923366e-01 2.1866471689514091e-01 1.3545975532259874e-01  5.4860254210838444e-01 1.7152389479693220e-01 3.7195480009378995e-01  7.3367327100406710e-01 3.1686469293645259e-01 8.6794097043082041e-01  7.3430610744456848e-01 3.1761597580677070e-01 8.6743660320477722e-01  4.9330886487520537e-01 2.4882512121117220e-01 8.6383073096352445e-02  4.9823124147189563e-01 2.4414996159462168e-01 1.0709923727240743e-01  4.9978407457456792e-01 1.5693282895432056e-01 1.6962897450236594e-01  6.8037379185776192e-01 1.9663144045282255e-01 8.4116439990053748e-01  5.2286803952464411e-01 3.0410847329230795e-01 1.5968683015930119e-01  5.2772913078050532e-01 2.6239879475888406e-01 2.1308675270166427e-01  6.4933745946338939e-01 5.3890552451262252e-01 4.1040892495563602e-01  5.2184372463073847e-01 3.4941010131256328e-01 1.1933582092714454e-01  5.1560259147559773e-01 2.8638656931250034e-01 1.4347312153178171e-01  4.9750377458465245e-01 2.1817925122863729e-01 1.2164534358365983e-01  5.2436497254294800e-01 2.0905433479744587e-01 2.3973786682610818e-01  5.3375512250362556e-01 2.0033299223570819e-01 2.8793301421051298e-01  5.4278575005048546e-01 2.7707565042383037e-01 2.6563563671389895e-01  5.1842210378270037e-01 2.2834869013829165e-01 1.9965029730330056e-01  5.2744840327457732e-01 3.7596407926590469e-01 1.1959695212431341e-01  5.3298764855197645e-01 4.0794043518220885e-01 1.1419577737632650e-01  7.4008503972618633e-01 3.4796929628133333e-01 8.5206078974043098e-01  7.3559784812725881e-01 3.1929606446146386e-01 8.6763417702075696e-01  5.1267146241847383e-01 1.0785691188969905e-01 2.5636897021297322e-01  5.5041618226849098e-01 2.1003573207692117e-01 3.5555332393834088e-01  5.6960037995084245e-01 2.9422487791865720e-01 3.6695178393696226e-01  6.5454458650282343e-01 1.6337694565639710e-01 7.8897395710406415e-01  5.1899682691169335e-01 3.7166719806630583e-01 9.1626904103504603e-02  5.2580795781616430e-01 3.9608206636561594e-01 9.7252196263526575e-02  5.6234007931227925e-01 1.0457940058790062e-01 4.6905472027086781e-01  5.0177404000491677e-01 1.9248381138465967e-01 1.5549457163806285e-01  5.8448906985036986e-01 1.5509846042952480e-01 5.3652662144833463e-01  7.0292294625062779e-01 2.3893883971000787e-01 8.6683488433364908e-01  5.0453348278678667e-01 1.1342907697565076e-01 2.1522565220069653e-01  4.9786402327845458e-01 1.5702548829813601e-01 1.6186069752936708e-01  7.0105342039432439e-01 2.3573359486190745e-01 8.6549959085868755e-01  4.9289717958681534e-01 1.9527285939071221e-01 1.1885748803258878e-01  6.2788515911815834e-01 5.6503508081185416e-01 3.0755791894898638e-01  5.1606093811003340e-01 9.7722864817971863e-02 2.7244262691133775e-01  5.0541392312028821e-01 1.3117213103594844e-01 2.0835842420043099e-01  6.6343472219503530e-01 2.0510166456369539e-01 7.9090808106313404e-01  5.1264508324558700e-01 3.4703844054620814e-01 8.7295550867541233e-02  6.8936921258690109e-01 2.1443613955772814e-01 8.5260339743752511e-01  6.8114847717507010e-01 1.9967029020692098e-01 8.4150923213862339e-01  7.0478503671381465e-01 2.4358720944066833e-01 8.6779836636975349e-01  6.2616403209582816e-01 1.3217399313218850e-01 7.1145085014077181e-01  5.0875100964794495e-01 2.6129835660609907e-01 1.3491899618384340e-01  5.4882331562864872e-01 1.4578438260124776e-01 3.9581463204332767e-01  6.4771412185